LAMMPS (23 Jun 2022 - Update 3)
OMP_NUM_THREADS environment is not set. Defaulting to 1 thread. (src/comm.cpp:98)
  using 1 OpenMP thread(s) per MPI task
units lj
dimension 3
boundary p p p

atom_style atomic
read_data random.data
Reading data file ...
  orthogonal box = (0 0 0) to (20 20 20)
  1 by 1 by 1 MPI processor grid
  reading atoms ...
  1000 atoms
  read_data CPU = 0.004 seconds
pair_style lj/cut 2.5
pair_coeff 1 1 1.0 1.0 2.5

mass 1 1.0

thermo 10
thermo_style custom step temp pe press vol lx density
dump mydump all custom 10 dump.min.lammpstrj id x y z

fix mynve all nve
minimize 1.0e-10 1.0e-10 10000 10000
WARNING: Using 'neigh_modify every 1 delay 0 check yes' setting during minimization (src/min.cpp:187)
Generated 0 of 0 mixed pair_coeff terms from geometric mixing rule
Neighbor list info ...
  update every 1 steps, delay 0 steps, check yes
  max neighbors/atom: 2000, page size: 100000
  master list distance cutoff = 2.8
  ghost atom cutoff = 2.8
  binsize = 1.4, bins = 15 15 15
  1 neighbor lists, perpetual/occasional/extra = 1 0 0
  (1) pair lj/cut, perpetual
      attributes: half, newton on
      pair build: half/bin/atomonly/newton
      stencil: half/bin/3d
      bin: standard
Per MPI rank memory allocation (min/avg/max) = 5.523 | 5.523 | 5.523 Mbytes
   Step          Temp          PotEng         Press          Volume           Lx          Density    
         0   0              2.2508094e+08  1.1254072e+08  8000           20             0.125        
        10   0              156.92552      80.907041      8000           20             0.125        
        20   0             -1.0029671     -0.090378521    8000           20             0.125        
        30   0             -1.3584351     -0.056727076    8000           20             0.125        
        40   0             -1.642049      -0.051072982    8000           20             0.125        
        50   0             -1.854041      -0.047017707    8000           20             0.125        
        60   0             -2.0586273     -0.046398825    8000           20             0.125        
        70   0             -2.2402505     -0.043810046    8000           20             0.125        
        80   0             -2.3943072     -0.042734657    8000           20             0.125        
        90   0             -2.541362      -0.046434056    8000           20             0.125        
       100   0             -2.6703687     -0.038364775    8000           20             0.125        
       110   0             -2.7885937     -0.038768694    8000           20             0.125        
       120   0             -2.9014034     -0.03569835     8000           20             0.125        
       130   0             -2.9830861     -0.034161858    8000           20             0.125        
       140   0             -3.0488936     -0.02964078     8000           20             0.125        
       150   0             -3.1083374     -0.030086691    8000           20             0.125        
       160   0             -3.1861188     -0.029565848    8000           20             0.125        
       170   0             -3.2508277     -0.02438334     8000           20             0.125        
       180   0             -3.3126346     -0.025157178    8000           20             0.125        
       190   0             -3.3617445     -0.025597712    8000           20             0.125        
       200   0             -3.4168129     -0.020173691    8000           20             0.125        
       210   0             -3.4638576     -0.021040029    8000           20             0.125        
       220   0             -3.5061453     -0.02147468     8000           20             0.125        
       230   0             -3.5528421     -0.022650628    8000           20             0.125        
       240   0             -3.5974195     -0.019438838    8000           20             0.125        
       250   0             -3.6314839     -0.017393201    8000           20             0.125        
       260   0             -3.6656526     -0.016164788    8000           20             0.125        
       270   0             -3.6911264     -0.017796813    8000           20             0.125        
       280   0             -3.7138397     -0.016051558    8000           20             0.125        
       290   0             -3.7417138     -0.016149631    8000           20             0.125        
       300   0             -3.7684556     -0.01243521     8000           20             0.125        
       310   0             -3.7980468     -0.010911367    8000           20             0.125        
       320   0             -3.825344      -0.011715492    8000           20             0.125        
       330   0             -3.8441983     -0.011022497    8000           20             0.125        
       340   0             -3.864961      -0.010001982    8000           20             0.125        
       350   0             -3.8858081     -0.010571011    8000           20             0.125        
       360   0             -3.9099452     -0.01128356     8000           20             0.125        
       370   0             -3.9333811     -0.012199616    8000           20             0.125        
       380   0             -3.9628085     -0.014071325    8000           20             0.125        
       390   0             -3.9827073     -0.0091933333   8000           20             0.125        
       400   0             -3.9966344     -0.0090825034   8000           20             0.125        
       410   0             -4.0152486     -0.00908045     8000           20             0.125        
       420   0             -4.0269476     -0.0074351118   8000           20             0.125        
       430   0             -4.0395539     -0.0089834348   8000           20             0.125        
       440   0             -4.0521728     -0.0079346551   8000           20             0.125        
       450   0             -4.0648445     -0.0086366332   8000           20             0.125        
       460   0             -4.0765204     -0.0098229003   8000           20             0.125        
       470   0             -4.0893401     -0.0090601963   8000           20             0.125        
       480   0             -4.1085897     -0.010227118    8000           20             0.125        
       490   0             -4.1176533     -0.0081068036   8000           20             0.125        
       500   0             -4.1262576     -0.0083698401   8000           20             0.125        
       510   0             -4.1359501     -0.0080216226   8000           20             0.125        
       520   0             -4.1459598     -0.0080415775   8000           20             0.125        
       530   0             -4.155759      -0.0076064154   8000           20             0.125        
       540   0             -4.1640147     -0.006890647    8000           20             0.125        
       550   0             -4.1712166     -0.0053119137   8000           20             0.125        
       560   0             -4.179284      -0.0070196351   8000           20             0.125        
       570   0             -4.1848876     -0.0070134008   8000           20             0.125        
       580   0             -4.1897185     -0.0039918392   8000           20             0.125        
       590   0             -4.1973546     -0.0070165991   8000           20             0.125        
       600   0             -4.2104935     -0.0073259718   8000           20             0.125        
       610   0             -4.2261559     -0.004715427    8000           20             0.125        
       620   0             -4.2364139     -0.0050615102   8000           20             0.125        
       630   0             -4.2462074     -0.004881272    8000           20             0.125        
       640   0             -4.254453      -0.0052412282   8000           20             0.125        
       650   0             -4.2686189     -0.0068903856   8000           20             0.125        
       660   0             -4.2781457     -0.0049432028   8000           20             0.125        
       670   0             -4.2872462     -0.0065163717   8000           20             0.125        
       680   0             -4.2965826     -0.0071051925   8000           20             0.125        
       690   0             -4.3040731     -0.0082408811   8000           20             0.125        
       700   0             -4.3155985     -0.0093062839   8000           20             0.125        
       710   0             -4.3244838     -0.0070369859   8000           20             0.125        
       720   0             -4.3352046     -0.0055208906   8000           20             0.125        
       730   0             -4.3455295     -0.0049036795   8000           20             0.125        
       740   0             -4.3543363     -0.0083061149   8000           20             0.125        
       750   0             -4.3663423     -0.0057728651   8000           20             0.125        
       760   0             -4.3732219     -0.0050626416   8000           20             0.125        
       770   0             -4.3836867     -0.0057329056   8000           20             0.125        
       780   0             -4.3928896     -0.0069823447   8000           20             0.125        
       790   0             -4.4018268     -0.0041334755   8000           20             0.125        
       800   0             -4.4141754     -0.010225822    8000           20             0.125        
       810   0             -4.4325713     -0.0071814039   8000           20             0.125        
       820   0             -4.443232      -0.0077033785   8000           20             0.125        
       830   0             -4.4527627     -0.0069802463   8000           20             0.125        
       840   0             -4.461515      -0.0064800922   8000           20             0.125        
       850   0             -4.4675935     -0.005591864    8000           20             0.125        
       860   0             -4.4752186     -0.0063324521   8000           20             0.125        
       870   0             -4.4844348     -0.0050047913   8000           20             0.125        
       880   0             -4.4914874     -0.0042897003   8000           20             0.125        
       890   0             -4.4979764     -0.0062826348   8000           20             0.125        
       900   0             -4.5042207     -0.0064583085   8000           20             0.125        
       910   0             -4.5103469     -0.0064321508   8000           20             0.125        
       920   0             -4.5158911     -0.0058479536   8000           20             0.125        
       930   0             -4.5260655     -0.0067057065   8000           20             0.125        
       940   0             -4.5357388     -0.0047538503   8000           20             0.125        
       950   0             -4.5458253     -0.0070603877   8000           20             0.125        
       960   0             -4.5527775     -0.0056663855   8000           20             0.125        
       970   0             -4.5595302     -0.0038262357   8000           20             0.125        
       980   0             -4.5677541     -0.0041814142   8000           20             0.125        
       990   0             -4.5764866     -0.0040491663   8000           20             0.125        
      1000   0             -4.5847759     -0.0022437745   8000           20             0.125        
      1010   0             -4.5910003     -0.005033472    8000           20             0.125        
      1020   0             -4.5982383     -0.0058819236   8000           20             0.125        
      1030   0             -4.6078251     -0.0039953852   8000           20             0.125        
      1040   0             -4.6153674     -0.003454134    8000           20             0.125        
      1050   0             -4.6200506     -0.0014227891   8000           20             0.125        
      1060   0             -4.6265209     -0.0040790325   8000           20             0.125        
      1070   0             -4.6308508     -0.0018843337   8000           20             0.125        
      1080   0             -4.6345468     -0.0021199678   8000           20             0.125        
      1090   0             -4.6367687     -0.0020705593   8000           20             0.125        
      1100   0             -4.6381883     -0.001844183    8000           20             0.125        
      1110   0             -4.6390967     -0.00027617984  8000           20             0.125        
      1120   0             -4.6399063     -0.00011463243  8000           20             0.125        
      1130   0             -4.6407824     -0.0004001983   8000           20             0.125        
      1140   0             -4.6430364     -0.0016988556   8000           20             0.125        
      1150   0             -4.6460977     -0.00077251265  8000           20             0.125        
      1160   0             -4.6481526     -0.0014214534   8000           20             0.125        
      1170   0             -4.6496195     -0.0014893365   8000           20             0.125        
      1180   0             -4.6528942     -0.00048676188  8000           20             0.125        
      1190   0             -4.6578377     -0.0011637598   8000           20             0.125        
      1200   0             -4.6593353     -0.0022545401   8000           20             0.125        
      1210   0             -4.6630939     -0.0017017219   8000           20             0.125        
      1220   0             -4.666266      -0.0019245582   8000           20             0.125        
      1230   0             -4.6689259     -0.0015379114   8000           20             0.125        
      1240   0             -4.6735562     -0.0028562864   8000           20             0.125        
      1250   0             -4.6778525     -0.0022712802   8000           20             0.125        
      1260   0             -4.6816964     -0.0028817369   8000           20             0.125        
      1270   0             -4.6834872     -0.0025325318   8000           20             0.125        
      1280   0             -4.6856895     -0.0018737559   8000           20             0.125        
      1290   0             -4.687383      -0.0018319844   8000           20             0.125        
      1300   0             -4.6880627     -0.0012563747   8000           20             0.125        
      1310   0             -4.6891509     -0.00098428098  8000           20             0.125        
      1320   0             -4.6904211     -0.0013137191   8000           20             0.125        
      1330   0             -4.6921921     -0.0015639044   8000           20             0.125        
      1340   0             -4.6943752     -0.0016177763   8000           20             0.125        
      1350   0             -4.6964306     -0.0015431181   8000           20             0.125        
      1360   0             -4.6978862     -0.0012170687   8000           20             0.125        
      1370   0             -4.6991198     -0.001459352    8000           20             0.125        
      1380   0             -4.6998727     -0.001372538    8000           20             0.125        
      1390   0             -4.7014755     -0.001993979    8000           20             0.125        
      1400   0             -4.7030083     -0.0019336428   8000           20             0.125        
      1410   0             -4.7049648     -0.0019432448   8000           20             0.125        
      1420   0             -4.7073545     -0.0028735495   8000           20             0.125        
      1430   0             -4.7111226     -0.0030199125   8000           20             0.125        
      1440   0             -4.715849      -0.004888015    8000           20             0.125        
      1450   0             -4.7210202     -0.0023110301   8000           20             0.125        
      1460   0             -4.7245729     -0.0024169761   8000           20             0.125        
      1470   0             -4.7289968     -0.0029466892   8000           20             0.125        
      1480   0             -4.7337551     -0.0029091905   8000           20             0.125        
      1490   0             -4.7373841     -0.0041917975   8000           20             0.125        
      1500   0             -4.7411142     -0.004643862    8000           20             0.125        
      1510   0             -4.745263      -0.0034913587   8000           20             0.125        
      1520   0             -4.749414      -0.003088811    8000           20             0.125        
      1530   0             -4.7530733     -0.0018912582   8000           20             0.125        
      1540   0             -4.7560565     -0.0029658889   8000           20             0.125        
      1550   0             -4.7582504     -0.0032483278   8000           20             0.125        
      1560   0             -4.7618581     -0.003957659    8000           20             0.125        
      1570   0             -4.7649308     -0.001330429    8000           20             0.125        
      1580   0             -4.768327      -0.0022403679   8000           20             0.125        
      1590   0             -4.770464      -0.0028180004   8000           20             0.125        
      1600   0             -4.7737816     -0.0042771655   8000           20             0.125        
      1610   0             -4.7765746     -0.004390388    8000           20             0.125        
      1620   0             -4.7799043     -0.0039395642   8000           20             0.125        
      1630   0             -4.7826019     -0.0016616944   8000           20             0.125        
      1640   0             -4.7849665     -0.0015680428   8000           20             0.125        
      1650   0             -4.787406      -0.00089672573  8000           20             0.125        
      1660   0             -4.7887175     -0.0017297702   8000           20             0.125        
      1670   0             -4.7896888     -0.001590532    8000           20             0.125        
      1680   0             -4.7904986     -0.0022244113   8000           20             0.125        
      1690   0             -4.7914455     -0.00071646679  8000           20             0.125        
      1692   0             -4.7915096     -0.00082056512  8000           20             0.125        
Loop time of 1.78137 on 1 procs for 1692 steps with 1000 atoms

98.9% CPU use with 1 MPI tasks x 1 OpenMP threads

Minimization stats:
  Stopping criterion = linesearch alpha is zero
  Energy initial, next-to-last, final = 
      225080944.491107   -4.7915096050268   -4.7915096050268
  Force two-norm initial, final = 3.0041023e+13 6.44913
  Force max component initial, final = 1.523413e+13 2.1074626
  Final line search alpha, max atom move = 1.5740399e-07 3.3172303e-07
  Iterations, force evaluations = 1692 3405

MPI task timing breakdown:
Section |  min time  |  avg time  |  max time  |%varavg| %total
---------------------------------------------------------------
Pair    | 1.1483     | 1.1483     | 1.1483     |   0.0 | 64.46
Neigh   | 0.28351    | 0.28351    | 0.28351    |   0.0 | 15.92
Comm    | 0.036991   | 0.036991   | 0.036991   |   0.0 |  2.08
Output  | 0.24781    | 0.24781    | 0.24781    |   0.0 | 13.91
Modify  | 0          | 0          | 0          |   0.0 |  0.00
Other   |            | 0.06477    |            |       |  3.64

Nlocal:           1000 ave        1000 max        1000 min
Histogram: 1 0 0 0 0 0 0 0 0 0
Nghost:           1359 ave        1359 max        1359 min
Histogram: 1 0 0 0 0 0 0 0 0 0
Neighs:          18710 ave       18710 max       18710 min
Histogram: 1 0 0 0 0 0 0 0 0 0

Total # of neighbors = 18710
Ave neighs/atom = 18.71
Neighbor list builds = 453
Dangerous builds = 0
Total wall time: 0:00:01
