ITEM: TIMESTEP
0
ITEM: NUMBER OF ATOMS
66
ITEM: BOX BOUNDS pp pp pp
-2.3135925306831645e+01 2.3135925306831645e+01
-8.6759719900618801e+00 8.6759719900618801e+00
-8.6759719900618801e+00 8.6759719900618801e+00
ITEM: ATOMS id type xs ys zs
2 5 0.0159044 0.44237 0.5
8 5 0.0461604 0.44237 0.5
12 5 0.106672 0.44237 0.5
15 5 0.167184 0.44237 0.5
19 5 0.227696 0.44237 0.5
22 5 0.288208 0.44237 0.5
26 5 0.34872 0.44237 0.5
29 5 0.409232 0.44237 0.5
33 5 0.469744 0.44237 0.5
36 5 0.530256 0.44237 0.5
40 5 0.590768 0.44237 0.5
43 5 0.65128 0.44237 0.5
47 5 0.711792 0.44237 0.5
50 5 0.772304 0.44237 0.5
54 5 0.832816 0.44237 0.5
5 7 0.985648 0.44237 0.5
57 5 0.893328 0.44237 0.5
61 5 0.95384 0.44237 0.5
64 5 0.984096 0.44237 0.5
1 3 0.0159044 0.5 0.5
3 5 0.0159044 0.55763 0.5
6 3 0.0461604 0.5 0.5
7 5 0.0461604 0.55763 0.5
9 4 0.0764163 0.5 0.5
10 3 0.106672 0.5 0.5
11 5 0.106672 0.55763 0.5
65 6 0.0143516 0.5 0.5
66 7 0.0143516 0.55763 0.5
13 3 0.167184 0.5 0.5
14 5 0.167184 0.55763 0.5
16 4 0.19744 0.5 0.5
17 3 0.227696 0.5 0.5
18 5 0.227696 0.55763 0.5
20 3 0.288208 0.5 0.5
21 5 0.288208 0.55763 0.5
23 4 0.318464 0.5 0.5
24 3 0.34872 0.5 0.5
25 5 0.34872 0.55763 0.5
27 3 0.409232 0.5 0.5
28 5 0.409232 0.55763 0.5
30 4 0.439488 0.5 0.5
31 3 0.469744 0.5 0.5
32 5 0.469744 0.55763 0.5
34 3 0.530256 0.5 0.5
35 5 0.530256 0.55763 0.5
37 4 0.560512 0.5 0.5
38 3 0.590768 0.5 0.5
39 5 0.590768 0.55763 0.5
41 3 0.65128 0.5 0.5
42 5 0.65128 0.55763 0.5
44 4 0.681536 0.5 0.5
45 3 0.711792 0.5 0.5
46 5 0.711792 0.55763 0.5
48 3 0.772304 0.5 0.5
49 5 0.772304 0.55763 0.5
51 4 0.80256 0.5 0.5
52 3 0.832816 0.5 0.5
53 5 0.832816 0.55763 0.5
4 6 0.985648 0.5 0.5
55 3 0.893328 0.5 0.5
56 5 0.893328 0.55763 0.5
58 4 0.923584 0.5 0.5
59 3 0.95384 0.5 0.5
60 5 0.95384 0.55763 0.5
62 3 0.984096 0.5 0.5
63 5 0.984096 0.55763 0.5
ITEM: TIMESTEP
10
ITEM: NUMBER OF ATOMS
66
ITEM: BOX BOUNDS pp pp pp
-2.3135925306831645e+01 2.3135925306831645e+01
-8.6759719900618801e+00 8.6759719900618801e+00
-8.6759719900618801e+00 8.6759719900618801e+00
ITEM: ATOMS id type xs ys zs
2 5 0.0159044 0.44237 0.5
8 5 0.0461604 0.44237 0.5
12 5 0.106672 0.44237 0.5
15 5 0.167184 0.44237 0.5
19 5 0.227696 0.44237 0.5
22 5 0.288208 0.44237 0.5
26 5 0.34872 0.44237 0.5
29 5 0.409232 0.44237 0.5
33 5 0.469744 0.44237 0.5
36 5 0.530256 0.44237 0.5
40 5 0.590768 0.44237 0.5
43 5 0.65128 0.44237 0.5
47 5 0.711792 0.44237 0.5
50 5 0.772304 0.44237 0.5
54 5 0.832816 0.44237 0.5
5 7 0.985733 0.44237 0.5
57 5 0.893328 0.44237 0.5
61 5 0.95384 0.44237 0.5
64 5 0.984011 0.44237 0.5
1 3 0.0177954 0.5 0.5
3 5 0.015989 0.55763 0.5
6 3 0.0461604 0.5 0.5
7 5 0.0461604 0.55763 0.5
9 4 0.0764163 0.5 0.5
10 3 0.106672 0.5 0.5
11 5 0.106672 0.55763 0.5
65 6 0.0124606 0.5 0.5
66 7 0.0142669 0.55763 0.5
13 3 0.167184 0.5 0.5
14 5 0.167184 0.55763 0.5
16 4 0.19744 0.5 0.5
17 3 0.227696 0.5 0.5
18 5 0.227696 0.55763 0.5
20 3 0.288208 0.5 0.5
21 5 0.288208 0.55763 0.5
23 4 0.318464 0.5 0.5
24 3 0.34872 0.5 0.5
25 5 0.34872 0.55763 0.5
27 3 0.409232 0.5 0.5
28 5 0.409232 0.55763 0.5
30 4 0.439488 0.5 0.5
31 3 0.469744 0.5 0.5
32 5 0.469744 0.55763 0.5
34 3 0.530256 0.5 0.5
35 5 0.530256 0.55763 0.5
37 4 0.560512 0.5 0.5
38 3 0.590768 0.5 0.5
39 5 0.590768 0.55763 0.5
41 3 0.65128 0.5 0.5
42 5 0.65128 0.55763 0.5
44 4 0.681536 0.5 0.5
45 3 0.711792 0.5 0.5
46 5 0.711792 0.55763 0.5
48 3 0.772304 0.5 0.5
49 5 0.772304 0.55763 0.5
51 4 0.80256 0.5 0.5
52 3 0.832816 0.5 0.5
53 5 0.832816 0.55763 0.5
4 6 0.987539 0.5 0.5
55 3 0.893328 0.5 0.5
56 5 0.893328 0.55763 0.5
58 4 0.923584 0.5 0.5
59 3 0.95384 0.5 0.5
60 5 0.95384 0.55763 0.5
62 3 0.982205 0.5 0.5
63 5 0.984096 0.55763 0.5
ITEM: TIMESTEP
20
ITEM: NUMBER OF ATOMS
66
ITEM: BOX BOUNDS pp pp pp
-2.3135925306831645e+01 2.3135925306831645e+01
-8.6759719900618801e+00 8.6759719900618801e+00
-8.6759719900618801e+00 8.6759719900618801e+00
ITEM: ATOMS id type xs ys zs
2 5 0.0159045 0.442369 0.5
8 5 0.0461604 0.44237 0.5
12 5 0.106672 0.44237 0.5
15 5 0.167184 0.44237 0.5
19 5 0.227696 0.44237 0.5
22 5 0.288208 0.44237 0.5
26 5 0.34872 0.44237 0.5
29 5 0.409232 0.44237 0.5
33 5 0.469744 0.44237 0.5
36 5 0.530256 0.44237 0.5
40 5 0.590768 0.44237 0.5
43 5 0.65128 0.44237 0.5
47 5 0.711792 0.44237 0.5
50 5 0.772304 0.44237 0.5
54 5 0.832816 0.44237 0.5
5 7 0.987721 0.44237 0.5
57 5 0.893328 0.44237 0.5
61 5 0.95384 0.44237 0.5
64 5 0.982023 0.442369 0.5
1 3 0.0239269 0.499999 0.5
3 5 0.017977 0.557631 0.5
6 3 0.0461604 0.5 0.5
7 5 0.0461604 0.55763 0.5
9 4 0.0764163 0.5 0.499999
10 3 0.106672 0.5 0.500001
11 5 0.106672 0.55763 0.5
65 6 0.00725792 0.500001 0.5
66 7 0.0122791 0.55763 0.5
13 3 0.167184 0.5 0.500001
14 5 0.167184 0.55763 0.5
16 4 0.19744 0.5 0.499999
17 3 0.227696 0.5 0.500001
18 5 0.227696 0.55763 0.5
20 3 0.288208 0.5 0.499999
21 5 0.288208 0.55763 0.5
23 4 0.318464 0.5 0.5
24 3 0.34872 0.5 0.500001
25 5 0.34872 0.55763 0.5
27 3 0.409232 0.499999 0.499999
28 5 0.409232 0.55763 0.5
30 4 0.439488 0.500001 0.5
31 3 0.469744 0.5 0.5
32 5 0.469744 0.55763 0.5
34 3 0.530256 0.5 0.500001
35 5 0.530256 0.55763 0.5
37 4 0.560512 0.499999 0.499999
38 3 0.590768 0.500001 0.5
39 5 0.590768 0.55763 0.5
41 3 0.65128 0.499999 0.500001
42 5 0.65128 0.55763 0.5
44 4 0.681536 0.5 0.499999
45 3 0.711792 0.500001 0.500001
46 5 0.711792 0.55763 0.5
48 3 0.772304 0.5 0.5
49 5 0.772304 0.55763 0.5
51 4 0.80256 0.5 0.5
52 3 0.832816 0.5 0.5
53 5 0.832816 0.55763 0.5
4 6 0.992742 0.5 0.5
55 3 0.893328 0.5 0.499999
56 5 0.893328 0.55763 0.5
58 4 0.923584 0.5 0.500001
59 3 0.95384 0.500001 0.5
60 5 0.95384 0.55763 0.5
62 3 0.976073 0.499999 0.5
63 5 0.984095 0.557631 0.5
ITEM: TIMESTEP
30
ITEM: NUMBER OF ATOMS
66
ITEM: BOX BOUNDS pp pp pp
-2.3135925306831645e+01 2.3135925306831645e+01
-8.6759719900618801e+00 8.6759719900618801e+00
-8.6759719900618801e+00 8.6759719900618801e+00
ITEM: ATOMS id type xs ys zs
2 5 0.0163055 0.436079 0.5
8 5 0.0461646 0.442364 0.5
12 5 0.106672 0.442368 0.499999
15 5 0.167184 0.442368 0.5
19 5 0.227696 0.442368 0.5
22 5 0.288208 0.442368 0.499999
26 5 0.34872 0.442368 0.499999
29 5 0.409232 0.442368 0.500001
33 5 0.469744 0.442368 0.500001
36 5 0.530256 0.442368 0.500001
40 5 0.590768 0.442368 0.5
43 5 0.65128 0.442368 0.499998
47 5 0.711792 0.442368 0.499999
50 5 0.772304 0.442368 0.5
54 5 0.832816 0.442368 0.5
5 7 0.989785 0.442472 0.5
57 5 0.893328 0.442368 0.499999
61 5 0.953818 0.442365 0.5
64 5 0.979218 0.436369 0.5
1 3 0.0425825 0.499751 0.500059
3 5 0.0207823 0.563633 0.5
6 3 0.04643 0.500001 0.499923
7 5 0.0461817 0.557635 0.5
9 4 0.0764164 0.500031 0.500012
10 3 0.106676 0.499972 0.500005
11 5 0.106672 0.557632 0.499999
65 6 0.0149616 0.501522 0.499995
66 7 0.0102146 0.557528 0.5
13 3 0.16718 0.500024 0.50003
14 5 0.167184 0.557632 0.5
16 4 0.19744 0.499945 0.49997
17 3 0.2277 0.500052 0.499998
18 5 0.227696 0.557632 0.5
20 3 0.288204 0.499982 0.500049
21 5 0.288208 0.557632 0.499999
23 4 0.318464 0.500033 0.499937
24 3 0.348724 0.499974 0.500041
25 5 0.34872 0.557632 0.499999
27 3 0.409228 0.499958 0.499975
28 5 0.409232 0.557632 0.500001
30 4 0.439488 0.500056 0.500022
31 3 0.469748 0.499963 0.499989
32 5 0.469744 0.557632 0.500001
34 3 0.530252 0.500047 0.499976
35 5 0.530256 0.557632 0.500001
37 4 0.560512 0.49995 0.500015
38 3 0.590772 0.50002 0.499998
39 5 0.590768 0.557632 0.5
41 3 0.651276 0.500018 0.500035
42 5 0.65128 0.557632 0.499998
44 4 0.681536 0.499975 0.499964
45 3 0.711796 0.500013 0.500006
46 5 0.711792 0.557632 0.499999
48 3 0.7723 0.500009 0.500009
49 5 0.772304 0.557632 0.5
51 4 0.80256 0.499955 0.499986
52 3 0.83282 0.500036 0.500011
53 5 0.832816 0.557632 0.5
4 6 0.985038 0.49848 0.500002
55 3 0.893324 0.500023 0.500015
56 5 0.893328 0.557632 0.499999
58 4 0.923584 0.499984 0.49997
59 3 0.95357 0.499957 0.50004
60 5 0.953835 0.557636 0.5
62 3 0.957417 0.500265 0.499975
63 5 0.983694 0.563923 0.5
ITEM: TIMESTEP
40
ITEM: NUMBER OF ATOMS
66
ITEM: BOX BOUNDS pp pp pp
-2.3135925306831645e+01 2.3135925306831645e+01
-8.6759719900618801e+00 8.6759719900618801e+00
-8.6759719900618801e+00 8.6759719900618801e+00
ITEM: ATOMS id type xs ys zs
2 5 0.0170049 0.413106 0.500033
8 5 0.0467601 0.441472 0.499938
12 5 0.106628 0.442153 0.499903
15 5 0.167221 0.442161 0.499867
19 5 0.227656 0.442164 0.499874
22 5 0.288248 0.442154 0.499873
26 5 0.348675 0.442152 0.49989
29 5 0.409287 0.442152 0.500047
33 5 0.469708 0.442154 0.500141
36 5 0.530292 0.442165 0.500139
40 5 0.590713 0.442166 0.500007
43 5 0.65132 0.442165 0.499873
47 5 0.711754 0.442164 0.499866
50 5 0.772358 0.442168 0.500019
54 5 0.832761 0.442168 0.49999
5 7 0.990091 0.442862 0.499997
57 5 0.893363 0.442159 0.499866
61 5 0.951677 0.442578 0.500019
64 5 0.977544 0.406823 0.499953
1 3 0.0570997 0.498389 0.503451
3 5 0.0224567 0.593179 0.500057
6 3 0.0583686 0.498557 0.496129
7 5 0.0483232 0.557421 0.499979
9 4 0.0766541 0.500428 0.500336
10 3 0.107271 0.499793 0.500535
11 5 0.106628 0.55784 0.499904
65 6 0.0172822 0.504567 0.499724
66 7 0.00990893 0.557139 0.500003
13 3 0.166653 0.500131 0.500752
14 5 0.167221 0.557842 0.499867
16 4 0.197441 0.499579 0.498805
17 3 0.228233 0.500355 0.500862
18 5 0.227656 0.557845 0.499874
20 3 0.287671 0.499528 0.500678
21 5 0.288248 0.557836 0.499874
23 4 0.318464 0.500965 0.499194
24 3 0.349265 0.499435 0.500583
25 5 0.348676 0.557833 0.499891
27 3 0.408668 0.499448 0.499622
28 5 0.409286 0.557834 0.500046
30 4 0.439488 0.500922 0.500846
31 3 0.470273 0.499599 0.499131
32 5 0.469708 0.557836 0.50014
34 3 0.529727 0.500445 0.499175
35 5 0.530293 0.557846 0.50014
37 4 0.560512 0.498975 0.500743
38 3 0.591334 0.50061 0.49977
39 5 0.590712 0.557848 0.500007
41 3 0.650743 0.500441 0.500752
42 5 0.651321 0.557846 0.499873
44 4 0.681536 0.499206 0.49894
45 3 0.712324 0.500311 0.500892
46 5 0.711753 0.557845 0.499865
48 3 0.771738 0.500707 0.499893
49 5 0.77236 0.55785 0.500019
51 4 0.80256 0.49866 0.499984
52 3 0.833383 0.500679 0.500049
53 5 0.832759 0.55785 0.49999
4 6 0.982718 0.49544 0.500228
55 3 0.89275 0.500226 0.500894
56 5 0.893363 0.557846 0.499865
58 4 0.923345 0.499581 0.49884
59 3 0.941631 0.501392 0.503833
60 5 0.953239 0.558528 0.500066
62 3 0.942898 0.501585 0.496627
63 5 0.982995 0.586897 0.499978
ITEM: TIMESTEP
50
ITEM: NUMBER OF ATOMS
66
ITEM: BOX BOUNDS pp pp pp
-2.3135925306831645e+01 2.3135925306831645e+01
-8.6759719900618801e+00 8.6759719900618801e+00
-8.6759719900618801e+00 8.6759719900618801e+00
ITEM: ATOMS id type xs ys zs
2 5 0.0224181 0.412237 0.502386
8 5 0.0513785 0.439343 0.498392
12 5 0.106292 0.439729 0.499749
15 5 0.167611 0.440671 0.498734
19 5 0.227292 0.44084 0.498762
22 5 0.288758 0.439702 0.498841
26 5 0.348154 0.439773 0.498838
29 5 0.409828 0.439805 0.500912
33 5 0.469255 0.439811 0.50137
36 5 0.530655 0.441082 0.501122
40 5 0.590303 0.441098 0.50056
43 5 0.651668 0.440853 0.498784
47 5 0.711421 0.440744 0.498682
50 5 0.772783 0.441255 0.500256
54 5 0.832315 0.441246 0.500065
5 7 0.989963 0.43965 0.49857
57 5 0.893578 0.440512 0.498824
61 5 0.944712 0.440139 0.50122
64 5 0.969951 0.388801 0.494897
1 3 0.0490022 0.490577 0.524215
3 5 0.0300553 0.61118 0.505168
6 3 0.065511 0.493966 0.477317
7 5 0.0553061 0.559704 0.498732
9 4 0.0815059 0.50604 0.509711
10 3 0.112772 0.497575 0.497372
11 5 0.106337 0.559183 0.499713
65 6 0.0123243 0.52931 0.465104
66 7 0.010039 0.560332 0.50143
13 3 0.16271 0.501354 0.50866
14 5 0.167642 0.559826 0.498646
16 4 0.197448 0.49699 0.489781
17 3 0.232287 0.502067 0.507852
18 5 0.227242 0.559985 0.498631
20 3 0.283501 0.496497 0.505681
21 5 0.28863 0.558913 0.499008
23 4 0.31847 0.507932 0.492551
24 3 0.353424 0.497185 0.506781
25 5 0.348307 0.558958 0.498995
27 3 0.40447 0.497412 0.493534
28 5 0.40968 0.558994 0.500782
30 4 0.439477 0.507098 0.508185
31 3 0.474369 0.496897 0.493018
32 5 0.469352 0.558985 0.501191
34 3 0.525595 0.503503 0.493719
35 5 0.530773 0.560277 0.501307
37 4 0.560525 0.491776 0.507184
38 3 0.595588 0.503173 0.494538
39 5 0.590138 0.560312 0.500685
41 3 0.64666 0.501659 0.508093
42 5 0.651778 0.559997 0.498662
44 4 0.68153 0.495 0.490557
45 3 0.716361 0.501178 0.508351
46 5 0.711322 0.559877 0.498589
48 3 0.767423 0.504312 0.497842
49 5 0.77299 0.560518 0.500319
51 4 0.802551 0.488846 0.5014
52 3 0.83759 0.504408 0.498484
53 5 0.832113 0.560542 0.500097
4 6 0.987711 0.470726 0.534719
55 3 0.887511 0.500352 0.507396
56 5 0.89359 0.559855 0.498769
58 4 0.918444 0.496803 0.488484
59 3 0.934453 0.504868 0.522557
60 5 0.948602 0.560503 0.501686
62 3 0.950989 0.509497 0.47588
63 5 0.977566 0.587769 0.497662
ITEM: TIMESTEP
60
ITEM: NUMBER OF ATOMS
66
ITEM: BOX BOUNDS pp pp pp
-2.3135925306831645e+01 2.3135925306831645e+01
-8.6759719900618801e+00 8.6759719900618801e+00
-8.6759719900618801e+00 8.6759719900618801e+00
ITEM: ATOMS id type xs ys zs
2 5 0.023233 0.429961 0.506943
8 5 0.0571259 0.437685 0.495692
12 5 0.106887 0.438996 0.500625
15 5 0.167739 0.440663 0.496467
19 5 0.227357 0.44143 0.496919
22 5 0.289086 0.437279 0.496594
26 5 0.347886 0.438347 0.496405
29 5 0.410095 0.438485 0.503207
33 5 0.469078 0.437762 0.503879
36 5 0.530586 0.442146 0.502717
40 5 0.590336 0.441595 0.502263
43 5 0.651565 0.440842 0.496609
47 5 0.711549 0.440543 0.496415
50 5 0.772822 0.442389 0.501273
54 5 0.831968 0.442185 0.500996
5 7 0.992479 0.444607 0.507409
57 5 0.892826 0.440738 0.497704
61 5 0.939109 0.445928 0.505611
64 5 0.97103 0.421716 0.482187
1 3 0.0305986 0.498187 0.53537
3 5 0.0290423 0.578239 0.517814
6 3 0.063489 0.493515 0.477151
7 5 0.0608655 0.553451 0.494078
9 4 0.0878924 0.506876 0.514959
10 3 0.117501 0.498198 0.491979
11 5 0.107075 0.558191 0.500202
65 6 0.993013 0.53885 0.445646
66 7 0.00753284 0.555379 0.492564
13 3 0.162895 0.501001 0.515543
14 5 0.167833 0.560876 0.495999
16 4 0.197729 0.495819 0.487216
17 3 0.233178 0.502365 0.51383
18 5 0.227197 0.56154 0.496161
20 3 0.282514 0.496392 0.511277
21 5 0.288582 0.557885 0.497528
23 4 0.318481 0.510895 0.489026
24 3 0.354502 0.49808 0.512536
25 5 0.34841 0.558501 0.497056
27 3 0.403371 0.498344 0.487739
28 5 0.40961 0.558706 0.50268
30 4 0.439422 0.509174 0.511748
31 3 0.475237 0.49688 0.487098
32 5 0.46943 0.558072 0.502902
34 3 0.524668 0.503551 0.48802
35 5 0.531044 0.562624 0.503735
37 4 0.560591 0.488915 0.510999
38 3 0.596773 0.502195 0.488796
39 5 0.58979 0.561997 0.502895
41 3 0.645623 0.500809 0.513769
42 5 0.651891 0.56074 0.496296
44 4 0.681489 0.494767 0.487663
45 3 0.717227 0.500369 0.514525
46 5 0.711215 0.560413 0.496268
48 3 0.766005 0.503919 0.493025
49 5 0.773674 0.563378 0.501826
51 4 0.802243 0.482697 0.505766
52 3 0.837904 0.50419 0.492717
53 5 0.831126 0.563901 0.501495
4 6 0.00700118 0.461187 0.554314
55 3 0.883039 0.499972 0.512291
56 5 0.892911 0.559491 0.497658
58 4 0.912049 0.496788 0.48497
59 3 0.936564 0.505829 0.522725
60 5 0.942869 0.56178 0.504606
62 3 0.969433 0.501727 0.464535
63 5 0.976713 0.570052 0.493088
ITEM: TIMESTEP
70
ITEM: NUMBER OF ATOMS
66
ITEM: BOX BOUNDS pp pp pp
-2.3135925306831645e+01 2.3135925306831645e+01
-8.6759719900618801e+00 8.6759719900618801e+00
-8.6759719900618801e+00 8.6759719900618801e+00
ITEM: ATOMS id type xs ys zs
2 5 0.0288429 0.468576 0.468817
8 5 0.068414 0.429621 0.491874
12 5 0.121573 0.43797 0.505309
15 5 0.171367 0.445086 0.485584
19 5 0.235247 0.449194 0.490053
22 5 0.283642 0.44088 0.483343
26 5 0.352376 0.443201 0.479599
29 5 0.405978 0.443271 0.520158
33 5 0.476093 0.441752 0.516357
36 5 0.524565 0.44982 0.513392
40 5 0.59498 0.446373 0.518762
43 5 0.646729 0.44392 0.479118
47 5 0.714774 0.443927 0.479807
50 5 0.766704 0.444897 0.516372
54 5 0.828784 0.445193 0.51626
5 7 0.00661544 0.448819 0.54345
57 5 0.878593 0.444161 0.495064
61 5 0.931653 0.448486 0.513819
64 5 0.971418 0.444731 0.477484
1 3 0.0382938 0.496122 0.523702
3 5 0.0285773 0.555378 0.523256
6 3 0.0764568 0.490937 0.508741
7 5 0.0685852 0.549382 0.481828
9 4 0.103795 0.49892 0.536284
10 3 0.131199 0.496728 0.499571
11 5 0.120678 0.555205 0.501951
65 6 0.97411 0.539843 0.433575
66 7 0.993369 0.551168 0.456908
13 3 0.17428 0.502033 0.519509
14 5 0.171128 0.556893 0.484283
16 4 0.206202 0.490154 0.494884
17 3 0.23815 0.505217 0.522716
18 5 0.235906 0.558309 0.486306
20 3 0.286487 0.493984 0.519544
21 5 0.284202 0.549986 0.48639
23 4 0.320322 0.5128 0.495435
24 3 0.35532 0.497669 0.513603
25 5 0.35354 0.553921 0.480665
27 3 0.404453 0.498092 0.485805
28 5 0.404916 0.554257 0.519324
30 4 0.439983 0.510815 0.504948
31 3 0.474787 0.494776 0.479599
32 5 0.47546 0.550551 0.513178
34 3 0.525303 0.505572 0.47976
35 5 0.524054 0.558558 0.516528
37 4 0.560172 0.488601 0.504048
38 3 0.59566 0.502564 0.485256
39 5 0.594159 0.556914 0.520203
41 3 0.644888 0.499882 0.511832
42 5 0.647333 0.556038 0.479598
44 4 0.679707 0.4977 0.486002
45 3 0.714015 0.500145 0.513261
46 5 0.714077 0.556478 0.479996
48 3 0.761477 0.501922 0.486466
49 5 0.767361 0.556862 0.516841
51 4 0.793846 0.49427 0.513774
52 3 0.825382 0.502838 0.482876
53 5 0.827871 0.558352 0.516987
4 6 0.0255673 0.460014 0.567548
55 3 0.868572 0.502532 0.503439
56 5 0.878126 0.561056 0.493847
58 4 0.895773 0.50176 0.465927
59 3 0.923219 0.508649 0.493697
60 5 0.932009 0.570444 0.505391
62 3 0.96158 0.504064 0.477849
63 5 0.971303 0.53177 0.532246
ITEM: TIMESTEP
80
ITEM: NUMBER OF ATOMS
66
ITEM: BOX BOUNDS pp pp pp
-2.3135925306831645e+01 2.3135925306831645e+01
-8.6759719900618801e+00 8.6759719900618801e+00
-8.6759719900618801e+00 8.6759719900618801e+00
ITEM: ATOMS id type xs ys zs
2 5 0.0414771 0.478212 0.468962
8 5 0.0871661 0.434485 0.476236
12 5 0.135826 0.437387 0.490093
15 5 0.183123 0.450396 0.489572
19 5 0.243271 0.45139 0.48633
22 5 0.288114 0.440223 0.47568
26 5 0.356652 0.442461 0.469972
29 5 0.406481 0.44327 0.52779
33 5 0.478042 0.441808 0.523642
36 5 0.523322 0.451753 0.52151
40 5 0.594857 0.450353 0.52349
43 5 0.641408 0.44536 0.468228
47 5 0.710162 0.444512 0.471187
50 5 0.756847 0.446631 0.522531
54 5 0.817296 0.446421 0.515942
5 7 0.0206566 0.451245 0.559493
57 5 0.86724 0.444513 0.497492
61 5 0.912703 0.459018 0.540658
64 5 0.956296 0.442692 0.468378
1 3 0.0529189 0.496727 0.526356
3 5 0.0436668 0.557264 0.532871
6 3 0.0896816 0.491292 0.508737
7 5 0.0876128 0.538873 0.46232
9 4 0.115027 0.498837 0.546837
10 3 0.142164 0.494678 0.515204
11 5 0.134109 0.549196 0.485228
65 6 0.957546 0.542947 0.430561
66 7 0.979124 0.548701 0.441301
13 3 0.184687 0.506398 0.523337
14 5 0.182397 0.557605 0.486964
16 4 0.214913 0.483727 0.50416
17 3 0.246065 0.507078 0.520225
18 5 0.244376 0.558311 0.481751
20 3 0.292455 0.491954 0.511025
21 5 0.289474 0.546534 0.477292
23 4 0.325033 0.517624 0.496886
24 3 0.358542 0.49435 0.508332
25 5 0.358516 0.549885 0.472689
27 3 0.407007 0.496222 0.490271
28 5 0.404666 0.551443 0.525652
30 4 0.441427 0.513104 0.508451
31 3 0.475417 0.493805 0.487194
32 5 0.476757 0.549244 0.521071
34 3 0.524794 0.507603 0.487842
35 5 0.522225 0.559087 0.524412
37 4 0.558774 0.484069 0.502484
38 3 0.593175 0.506553 0.489291
39 5 0.594393 0.557936 0.527431
41 3 0.641733 0.49887 0.504532
42 5 0.64283 0.553889 0.469767
44 4 0.674937 0.499129 0.478058
45 3 0.707615 0.499805 0.506543
46 5 0.709723 0.555384 0.471455
48 3 0.754061 0.502247 0.486989
49 5 0.756899 0.554353 0.522931
51 4 0.785302 0.49828 0.512965
52 3 0.81481 0.503665 0.481589
53 5 0.816467 0.556444 0.516898
4 6 0.0419921 0.457024 0.57064
55 3 0.856701 0.504057 0.496866
56 5 0.866626 0.563469 0.495169
58 4 0.883929 0.502073 0.461828
59 3 0.910153 0.507882 0.495521
60 5 0.913083 0.565285 0.528116
62 3 0.946781 0.503045 0.474806
63 5 0.958476 0.521923 0.531966
ITEM: TIMESTEP
90
ITEM: NUMBER OF ATOMS
66
ITEM: BOX BOUNDS pp pp pp
-2.3135925306831645e+01 2.3135925306831645e+01
-8.6759719900618801e+00 8.6759719900618801e+00
-8.6759719900618801e+00 8.6759719900618801e+00
ITEM: ATOMS id type xs ys zs
2 5 0.0536963 0.482894 0.47255
8 5 0.0993999 0.432729 0.478562
12 5 0.149233 0.438653 0.477498
15 5 0.193316 0.452631 0.486816
19 5 0.249553 0.453846 0.483632
22 5 0.294403 0.438322 0.473362
26 5 0.359837 0.44026 0.467593
29 5 0.409625 0.443011 0.528559
33 5 0.478173 0.441347 0.525863
36 5 0.523355 0.454499 0.528782
40 5 0.591626 0.45292 0.526107
43 5 0.637499 0.444587 0.465265
47 5 0.703461 0.44445 0.468591
50 5 0.750026 0.447669 0.519002
54 5 0.807268 0.447114 0.513795
5 7 0.0341759 0.454905 0.565895
57 5 0.855932 0.446082 0.508771
61 5 0.900682 0.461179 0.54483
64 5 0.942288 0.441603 0.462186
1 3 0.0657454 0.497309 0.527798
3 5 0.0572104 0.558403 0.540517
6 3 0.101875 0.491414 0.50837
7 5 0.0998066 0.537465 0.462402
9 4 0.126699 0.499026 0.545507
10 3 0.152573 0.493727 0.510066
11 5 0.14694 0.543877 0.472342
65 6 0.944401 0.544376 0.430651
66 7 0.964634 0.54523 0.434976
13 3 0.19424 0.507844 0.521932
14 5 0.192092 0.561021 0.486475
16 4 0.223392 0.478858 0.511888
17 3 0.253293 0.508674 0.518505
18 5 0.25059 0.559738 0.480795
20 3 0.298212 0.49086 0.507337
21 5 0.295916 0.543266 0.470029
23 4 0.330157 0.5201 0.504254
24 3 0.362234 0.491635 0.506359
25 5 0.361653 0.546672 0.470399
27 3 0.409506 0.496947 0.490684
28 5 0.407199 0.551254 0.526631
30 4 0.443025 0.510926 0.513316
31 3 0.476311 0.494228 0.488701
32 5 0.476462 0.548289 0.524964
34 3 0.524082 0.508552 0.493452
35 5 0.522339 0.560556 0.529853
37 4 0.557252 0.480941 0.495975
38 3 0.590449 0.508382 0.491609
39 5 0.591495 0.560087 0.530328
41 3 0.637761 0.49795 0.503446
42 5 0.639485 0.553232 0.468315
44 4 0.669843 0.502436 0.475086
45 3 0.701777 0.499216 0.503752
46 5 0.703047 0.554561 0.469161
48 3 0.746492 0.500499 0.484858
49 5 0.749863 0.555872 0.521146
51 4 0.77666 0.499232 0.513211
52 3 0.805483 0.501202 0.478808
53 5 0.806445 0.558348 0.516951
4 6 0.0546211 0.455708 0.572782
55 3 0.84663 0.504231 0.495766
56 5 0.855295 0.564135 0.505614
58 4 0.872781 0.502587 0.461728
59 3 0.898366 0.507786 0.498905
60 5 0.901285 0.565728 0.530382
62 3 0.934119 0.502424 0.476255
63 5 0.946715 0.516494 0.530063
ITEM: TIMESTEP
100
ITEM: NUMBER OF ATOMS
66
ITEM: BOX BOUNDS pp pp pp
-2.3135925306831645e+01 2.3135925306831645e+01
-8.6759719900618801e+00 8.6759719900618801e+00
-8.6759719900618801e+00 8.6759719900618801e+00
ITEM: ATOMS id type xs ys zs
2 5 0.0689182 0.488328 0.47587
8 5 0.114769 0.431367 0.479482
12 5 0.163714 0.436211 0.475324
15 5 0.207943 0.457004 0.472629
19 5 0.258604 0.457662 0.474727
22 5 0.303946 0.435209 0.473356
26 5 0.365077 0.437521 0.464618
29 5 0.413772 0.446011 0.527276
33 5 0.478083 0.442057 0.522304
36 5 0.522909 0.45591 0.544879
40 5 0.586346 0.455465 0.537684
43 5 0.631725 0.442572 0.460948
47 5 0.694069 0.442463 0.464671
50 5 0.740941 0.447098 0.51517
54 5 0.794538 0.446284 0.510123
5 7 0.051151 0.457087 0.571987
57 5 0.837493 0.453865 0.536458
61 5 0.884802 0.461875 0.543424
64 5 0.925566 0.440469 0.454547
1 3 0.0821311 0.499142 0.531035
3 5 0.0749694 0.559383 0.54829
6 3 0.117037 0.490761 0.50791
7 5 0.11523 0.535148 0.458946
9 4 0.142059 0.499812 0.543234
10 3 0.167033 0.491349 0.508685
11 5 0.161141 0.541104 0.467734
65 6 0.928316 0.544692 0.428625
66 7 0.948949 0.543309 0.430525
13 3 0.206683 0.507809 0.516728
14 5 0.206177 0.56518 0.482887
16 4 0.23532 0.477921 0.52623
17 3 0.264093 0.508274 0.514599
18 5 0.259668 0.563064 0.48045
20 3 0.306821 0.491739 0.504044
21 5 0.305373 0.539947 0.455337
23 4 0.337362 0.513715 0.520735
24 3 0.367593 0.489301 0.500472
25 5 0.365315 0.542652 0.462489
27 3 0.413294 0.501257 0.492479
28 5 0.410905 0.554351 0.529135
30 4 0.445684 0.498056 0.519684
31 3 0.477395 0.497812 0.487906
32 5 0.475974 0.550683 0.526496
34 3 0.523395 0.506299 0.502042
35 5 0.52257 0.561431 0.534645
37 4 0.554967 0.486652 0.479815
38 3 0.586444 0.50882 0.49906
39 5 0.587359 0.561631 0.535168
41 3 0.632158 0.493965 0.499483
42 5 0.633886 0.550437 0.467329
44 4 0.663 0.511179 0.475066
45 3 0.693389 0.497069 0.501773
46 5 0.694004 0.553433 0.466834
48 3 0.736909 0.502353 0.481427
49 5 0.740077 0.555893 0.517724
51 4 0.76585 0.500706 0.51085
52 3 0.793632 0.503185 0.47742
53 5 0.79365 0.557978 0.513104
4 6 0.0718561 0.455701 0.574819
55 3 0.83369 0.505032 0.497744
56 5 0.83722 0.558677 0.532949
58 4 0.858545 0.502494 0.460538
59 3 0.883337 0.507895 0.495982
60 5 0.885632 0.566742 0.525985
62 3 0.917998 0.500345 0.47252
63 5 0.931548 0.511165 0.527591
ITEM: TIMESTEP
0
ITEM: NUMBER OF ATOMS
66
ITEM: BOX BOUNDS pp pp pp
-2.3135925306831645e+01 2.3135925306831645e+01
-8.6759719900618801e+00 8.6759719900618801e+00
-8.6759719900618801e+00 8.6759719900618801e+00
ITEM: ATOMS id type xs ys zs
2 5 0.0689182 0.488328 0.47587
8 5 0.114769 0.431367 0.479482
12 5 0.163714 0.436211 0.475324
15 5 0.207943 0.457004 0.472629
19 5 0.258604 0.457662 0.474727
22 5 0.303946 0.435209 0.473356
26 5 0.365077 0.437521 0.464618
31 3 0.477395 0.497812 0.487906
43 5 0.631725 0.442572 0.460948
37 4 0.554967 0.486652 0.479815
41 3 0.632158 0.493965 0.499483
47 5 0.694069 0.442463 0.464671
64 5 0.925566 0.440469 0.454547
7 5 0.11523 0.535148 0.458946
11 5 0.161141 0.541104 0.467734
14 5 0.206177 0.56518 0.482887
18 5 0.259668 0.563064 0.48045
21 5 0.305373 0.539947 0.455337
25 5 0.365315 0.542652 0.462489
27 3 0.413294 0.501257 0.492479
38 3 0.586444 0.50882 0.49906
42 5 0.633886 0.550437 0.467329
44 4 0.663 0.511179 0.475066
46 5 0.694004 0.553433 0.466834
48 3 0.736909 0.502353 0.481427
52 3 0.793632 0.503185 0.47742
65 6 0.928316 0.544692 0.428625
66 7 0.948949 0.543309 0.430525
55 3 0.83369 0.505032 0.497744
58 4 0.858545 0.502494 0.460538
59 3 0.883337 0.507895 0.495982
62 3 0.917998 0.500345 0.47252
5 7 0.051151 0.457087 0.571987
1 3 0.0821311 0.499142 0.531035
6 3 0.117037 0.490761 0.50791
9 4 0.142059 0.499812 0.543234
4 6 0.0718561 0.455701 0.574819
10 3 0.167033 0.491349 0.508685
16 4 0.23532 0.477921 0.52623
20 3 0.306821 0.491739 0.504044
29 5 0.413772 0.446011 0.527276
33 5 0.478083 0.442057 0.522304
24 3 0.367593 0.489301 0.500472
30 4 0.445684 0.498056 0.519684
36 5 0.522909 0.45591 0.544879
40 5 0.586346 0.455465 0.537684
50 5 0.740941 0.447098 0.51517
54 5 0.794538 0.446284 0.510123
45 3 0.693389 0.497069 0.501773
57 5 0.837493 0.453865 0.536458
61 5 0.884802 0.461875 0.543424
3 5 0.0749694 0.559383 0.54829
13 3 0.206683 0.507809 0.516728
17 3 0.264093 0.508274 0.514599
23 4 0.337362 0.513715 0.520735
28 5 0.410905 0.554351 0.529135
32 5 0.475974 0.550683 0.526496
34 3 0.523395 0.506299 0.502042
35 5 0.52257 0.561431 0.534645
39 5 0.587359 0.561631 0.535168
49 5 0.740077 0.555893 0.517724
51 4 0.76585 0.500706 0.51085
53 5 0.79365 0.557978 0.513104
56 5 0.83722 0.558677 0.532949
60 5 0.885632 0.566742 0.525985
63 5 0.931548 0.511165 0.527591
ITEM: TIMESTEP
1000
ITEM: NUMBER OF ATOMS
66
ITEM: BOX BOUNDS pp pp pp
-2.3135925306831645e+01 2.3135925306831645e+01
-8.6759719900618801e+00 8.6759719900618801e+00
-8.6759719900618801e+00 8.6759719900618801e+00
ITEM: ATOMS id type xs ys zs
2 5 0.354076 0.515306 0.558864
8 5 0.360764 0.383418 0.527202
12 5 0.383283 0.304124 0.423402
15 5 0.429692 0.307123 0.38337
19 5 0.461154 0.456054 0.396429
22 5 0.420047 0.511717 0.528574
26 5 0.44704 0.601831 0.601781
31 3 0.523876 0.672455 0.618604
43 5 0.569539 0.538617 0.554948
37 4 0.554935 0.585606 0.674114
41 3 0.558295 0.492475 0.590157
47 5 0.545367 0.373551 0.524727
64 5 0.65143 0.498131 0.558349
7 5 0.339268 0.392862 0.433979
11 5 0.37548 0.370873 0.346764
14 5 0.425236 0.388919 0.319935
18 5 0.425237 0.502313 0.38099
21 5 0.448287 0.444511 0.53406
25 5 0.473849 0.52636 0.606445
27 3 0.490139 0.631997 0.554432
38 3 0.546197 0.522933 0.66519
42 5 0.575571 0.446739 0.596543
44 4 0.539678 0.491583 0.54321
46 5 0.512649 0.439021 0.527773
48 3 0.535493 0.44075 0.418503
52 3 0.566953 0.475271 0.345779
65 6 0.623795 0.419979 0.545896
66 7 0.606353 0.436377 0.518355
55 3 0.595993 0.504002 0.374568
58 4 0.60513 0.476487 0.43237
59 3 0.62457 0.512536 0.456545
62 3 0.640221 0.458308 0.51559
5 7 0.373817 0.543464 0.45612
1 3 0.346447 0.497773 0.49878
6 3 0.357611 0.417155 0.470986
9 4 0.380577 0.413948 0.448501
4 6 0.352982 0.544666 0.45801
10 3 0.387553 0.365732 0.40333
16 4 0.432664 0.396165 0.430173
20 3 0.442317 0.500426 0.502614
29 5 0.481245 0.683863 0.521919
33 5 0.525368 0.735659 0.637567
24 3 0.464827 0.573502 0.567192
30 4 0.499229 0.660153 0.616073
36 5 0.521119 0.615185 0.734231
40 5 0.522321 0.503469 0.669128
50 5 0.513358 0.468231 0.406986
54 5 0.561345 0.497891 0.285248
45 3 0.536531 0.432588 0.508707
57 5 0.591989 0.568963 0.36575
61 5 0.617788 0.564163 0.493435
3 5 0.321664 0.497184 0.501792
13 3 0.421093 0.368124 0.381794
17 3 0.438607 0.45947 0.421333
23 4 0.454423 0.558982 0.508835
28 5 0.508191 0.60239 0.522743
32 5 0.540531 0.667598 0.568469
34 3 0.537803 0.633268 0.689331
35 5 0.557244 0.672072 0.704497
39 5 0.556438 0.485362 0.713125
49 5 0.535464 0.37835 0.39409
51 4 0.549586 0.490291 0.394969
53 5 0.574448 0.410821 0.343431
56 5 0.610861 0.485487 0.326213
60 5 0.640732 0.54039 0.413853
63 5 0.656861 0.423371 0.482508
ITEM: TIMESTEP
2000
ITEM: NUMBER OF ATOMS
66
ITEM: BOX BOUNDS pp pp pp
-2.3135925306831645e+01 2.3135925306831645e+01
-8.6759719900618801e+00 8.6759719900618801e+00
-8.6759719900618801e+00 8.6759719900618801e+00
ITEM: ATOMS id type xs ys zs
12 5 0.416623 0.57593 0.351055
15 5 0.361347 0.577033 0.40239
19 5 0.400568 0.652153 0.457913
7 5 0.430918 0.446798 0.270121
11 5 0.384973 0.553381 0.291879
14 5 0.370903 0.473122 0.427311
1 3 0.421929 0.350396 0.34085
6 3 0.422745 0.439616 0.332382
9 4 0.400401 0.465923 0.323115
10 3 0.398693 0.530172 0.342294
16 4 0.393212 0.542802 0.474267
13 3 0.379519 0.535495 0.417019
17 3 0.395111 0.605912 0.501003
48 3 0.569462 0.361627 0.608747
52 3 0.550869 0.322192 0.520751
58 4 0.553307 0.359713 0.389338
50 5 0.55416 0.371314 0.658491
54 5 0.533984 0.280515 0.548069
49 5 0.577483 0.298512 0.621287
51 4 0.554367 0.375915 0.56089
53 5 0.569464 0.282073 0.504781
56 5 0.529832 0.291741 0.417954
63 5 0.58432 0.434267 0.283245
3 5 0.434692 0.31834 0.295575
18 5 0.37213 0.620062 0.524356
5 7 0.387607 0.369051 0.320197
4 6 0.398436 0.323575 0.334375
55 3 0.537942 0.34804 0.442798
59 3 0.556149 0.428912 0.389867
57 5 0.517802 0.382894 0.457779