ITEM: TIMESTEP
0
ITEM: NUMBER OF ATOMS
1150
ITEM: BOX BOUNDS pp pp pp
-2.0000000000000000e+01 2.0000000000000000e+01
-2.0000000000000000e+01 2.0000000000000000e+01
-2.0000000000000000e+01 2.0000000000000000e+01
ITEM: ATOMS id type xs ys zs
120 1 0.757425 0.0422463 0.0343749
464 1 0.138698 0.0994236 0.0125068
440 1 0.512649 0.084252 0.0230883
129 1 0.923372 0.106981 0.0342373
493 1 0.586965 0.113525 0.00660581
158 1 0.192668 0.171121 0.0240716
993 1 0.684371 0.21878 0.0285783
209 1 0.171969 0.283693 0.0269497
1099 2 0.457772 0.268742 0.00356643
373 1 0.263421 0.316952 0.0162251
1057 2 0.35606 0.29876 0.0193345
623 1 0.103667 0.334147 0.0132685
1095 2 0.361863 0.325237 0.0166174
756 1 0.12045 0.402334 0.0251382
1036 2 0.58826 0.39378 0.0186462
982 1 0.820396 0.400072 0.00438588
401 1 0.866926 0.42298 0.0215337
852 1 0.954628 0.436842 0.0115761
354 1 0.82183 0.491522 0.0168975
1072 2 0.390105 0.501741 0.0109892
214 1 0.112366 0.536266 0.0245369
282 1 0.25457 0.553638 0.000711273
912 1 0.826177 0.552033 0.0252513
329 1 0.106894 0.573751 0.0279311
98 1 0.234461 0.582972 0.00879444
1110 2 0.640334 0.593042 0.0157331
474 1 0.888891 0.590172 0.0284745
955 1 0.787566 0.621825 0.0150228
780 1 0.296583 0.663355 0.0118783
512 1 0.105175 0.68418 0.0121048
596 1 0.92906 0.717798 0.0284749
476 1 0.547438 0.785389 0.0273973
883 1 0.55422 0.783485 0.0326363
677 1 0.672979 0.752009 0.0135029
452 1 0.058832 0.789315 0.018122
19 1 0.321164 0.796813 0.035111
926 1 0.409699 0.819243 0.0113688
645 1 0.0778155 0.844649 0.0129337
1000 1 0.520131 0.840959 0.00505615
243 1 0.957508 0.83864 0.0169959
184 1 0.7335 0.927174 0.0123307
710 1 0.172011 0.987745 0.0348333
166 1 0.851491 0.00678682 0.0660292
701 1 0.9953 0.0133309 0.052313
956 1 0.410252 0.0974034 0.0592125
856 1 0.857744 0.0987723 0.0667972
851 1 0.0965145 0.1193 0.0706226
293 1 0.821569 0.109123 0.0378134
39 1 0.133228 0.166421 0.0449002
929 1 0.634627 0.17856 0.0645645
199 1 0.590717 0.179214 0.0518556
718 1 0.153587 0.339684 0.0667563
1040 2 0.30662 0.35472 0.0681836
1039 2 0.373109 0.340499 0.0424791
165 1 0.922314 0.328914 0.0562028
1037 2 0.443296 0.482434 0.0422518
82 1 0.786785 0.497951 0.060379
353 1 0.14503 0.526509 0.0445542
850 1 0.750322 0.667106 0.0440945
306 1 0.764605 0.710303 0.0672566
628 1 0.796436 0.702686 0.0447527
383 1 0.827018 0.687098 0.0567365
565 1 0.586348 0.743264 0.0442668
757 1 0.497458 0.777537 0.0609198
671 1 0.772403 0.778846 0.0614151
385 1 0.99493 0.79622 0.0641679
606 1 0.0284312 0.842747 0.0562949
54 1 0.492527 0.892905 0.0601592
409 1 0.291362 0.9292 0.0676104
983 1 0.713449 0.942943 0.0432315
693 1 0.667756 0.983402 0.0398916
871 1 0.16773 0.0328498 0.106735
593 1 0.461118 0.00411097 0.0929957
831 1 0.0483156 0.0403448 0.0751613
109 1 0.116325 0.0705713 0.0913406
515 1 0.952583 0.0615269 0.0823688
92 1 0.478198 0.0814008 0.103873
30 1 0.136677 0.127988 0.0908566
297 1 0.461183 0.110079 0.0924516
391 1 0.581791 0.15976 0.0898071
256 1 0.051479 0.208252 0.0943423
321 1 0.812473 0.225923 0.0837053
945 1 0.586914 0.25829 0.0832687
67 1 0.734413 0.271976 0.102805
680 1 0.239384 0.325703 0.0979182
1047 2 0.443347 0.340024 0.0746745
414 1 0.808142 0.450769 0.074645
28 1 0.818378 0.473677 0.0827065
114 1 0.787737 0.487599 0.0753694
980 1 0.925297 0.46487 0.0731816
881 1 0.179123 0.527584 0.106327
1073 2 0.597995 0.508823 0.0747025
386 1 0.0986834 0.572266 0.0733727
798 1 0.266235 0.607014 0.0788391
1005 2 0.667886 0.666585 0.103708
895 1 0.692075 0.701676 0.0722457
246 1 0.233994 0.730118 0.0967762
37 1 0.279569 0.718455 0.0720298
89 1 0.754848 0.722799 0.0901219
326 1 0.795128 0.723275 0.0828249
395 1 0.793706 0.823234 0.089998
396 1 0.475032 0.86036 0.0746482
518 1 0.162902 0.899392 0.0806847
774 1 0.801208 0.89957 0.0752336
400 1 0.85077 0.894573 0.0804943
295 1 0.882604 0.927535 0.0814218
151 1 0.320162 0.959248 0.0846155
644 1 0.653712 0.933664 0.0938941
990 1 0.155411 0.997388 0.09968
84 1 0.348841 0.96841 0.0716551
283 1 0.954364 0.999886 0.0825708
251 1 0.0215448 0.103714 0.127772
795 1 0.21682 0.0997871 0.121833
647 1 0.376158 0.0870545 0.12516
829 1 0.291493 0.130132 0.124392
14 1 0.401566 0.111449 0.121653
314 1 0.675202 0.116387 0.117833
260 1 0.666759 0.212479 0.133662
190 1 0.701623 0.184751 0.110908
545 1 0.923495 0.184037 0.110908
711 1 0.443163 0.233541 0.117894
486 1 0.616721 0.229258 0.138799
81 1 0.789506 0.22896 0.137906
272 1 0.0974748 0.258651 0.140425
423 1 0.958962 0.270788 0.132501
1 1 0.294299 0.288875 0.114459
480 1 0.104263 0.356228 0.122489
451 1 0.158173 0.411147 0.139231
203 1 0.977831 0.403292 0.134295
782 1 0.252539 0.430841 0.138238
1085 2 0.362762 0.445994 0.133043
1078 2 0.706577 0.446291 0.114247
689 1 0.233442 0.46761 0.124509
1133 2 0.497202 0.477231 0.12916
1048 2 0.48578 0.503796 0.112351
1008 2 0.676862 0.517035 0.12942
478 1 0.920186 0.560904 0.109133
41 1 0.183471 0.594998 0.13101
1007 2 0.547217 0.575433 0.11591
610 1 0.896152 0.619572 0.138839
815 1 0.233513 0.645573 0.140078
893 1 0.874555 0.651701 0.134651
995 1 0.169435 0.694955 0.108287
73 1 0.736757 0.683294 0.126397
167 1 0.75324 0.705547 0.122429
709 1 0.120648 0.73607 0.124451
1106 2 0.495223 0.719094 0.12542
807 1 0.826901 0.724526 0.114831
513 1 0.0885796 0.757608 0.109925
488 1 0.325625 0.785812 0.138303
111 1 0.595751 0.792534 0.119261
57 1 0.415056 0.852034 0.130165
683 1 0.0749011 0.863458 0.13352
116 1 0.219961 0.879522 0.129798
999 1 0.493359 0.88434 0.110156
80 1 0.167187 0.90933 0.114047
862 1 0.350326 0.926764 0.130346
836 1 0.156542 0.00947028 0.166922
648 1 0.570003 0.0472515 0.156543
456 1 0.892846 0.0660538 0.16569
554 1 0.928843 0.0669453 0.149524
688 1 0.0918127 0.0958623 0.158407
801 1 0.782539 0.131324 0.170126
747 1 0.201952 0.212778 0.157189
516 1 0.422218 0.210933 0.15734
379 1 0.788554 0.220811 0.167585
766 1 0.1515 0.260496 0.155035
646 1 0.376467 0.281142 0.151328
1017 2 0.568201 0.260715 0.172213
660 1 0.656825 0.264244 0.148197
988 1 0.770647 0.260019 0.144346
299 1 0.0206041 0.292328 0.148983
483 1 0.706866 0.296137 0.176564
765 1 0.979788 0.304347 0.158812
543 1 0.697825 0.340166 0.161907
177 1 0.841276 0.331002 0.153485
725 1 0.71871 0.366703 0.176626
1027 2 0.388434 0.413657 0.154491
899 1 0.143122 0.454166 0.16181
1103 2 0.462424 0.460096 0.158878
378 1 0.786783 0.466184 0.148497
1109 2 0.41694 0.502519 0.160337
31 1 0.0277001 0.556326 0.171134
751 1 0.237851 0.560967 0.174764
1024 2 0.665588 0.538605 0.159416
1009 2 0.538384 0.616906 0.168587
238 1 0.750677 0.627903 0.169678
967 1 0.780725 0.637364 0.170806
894 1 0.0812545 0.644147 0.174373
131 1 0.209357 0.662591 0.170066
1056 2 0.382588 0.654866 0.175535
138 1 0.760203 0.731728 0.150202
410 1 0.3286 0.786646 0.15537
573 1 0.640912 0.810088 0.148909
678 1 0.94281 0.813421 0.159964
561 1 0.965538 0.793131 0.153723
104 1 0.323189 0.829545 0.160718
664 1 0.250483 0.861556 0.17649
917 1 0.565177 0.922364 0.164371
453 1 0.57648 0.902907 0.153478
738 1 0.915089 0.90249 0.143188
130 1 0.555242 0.953303 0.156852
262 1 0.692089 0.938964 0.166444
110 1 0.161121 0.966511 0.156934
601 1 0.500801 0.969131 0.178399
444 1 0.689235 0.980077 0.147531
909 1 0.99762 0.996797 0.168103
984 1 0.591184 0.0350575 0.211309
935 1 0.109363 0.065936 0.187097
832 1 0.23562 0.0611771 0.203623
712 1 0.445592 0.0681388 0.209025
38 1 0.663837 0.105205 0.180481
372 1 0.610586 0.120795 0.206596
497 1 0.650512 0.150009 0.207693
126 1 0.104729 0.180414 0.211589
420 1 0.198383 0.227774 0.199949
797 1 0.128296 0.262819 0.196541
222 1 0.186128 0.25925 0.2134
1141 2 0.606044 0.289126 0.184398
585 1 0.744529 0.300185 0.20634
311 1 0.817479 0.361944 0.187563
216 1 0.0839795 0.443754 0.180613
631 1 0.867821 0.47416 0.20881
1086 2 0.278189 0.529324 0.194146
304 1 0.908879 0.534075 0.205547
406 1 0.211734 0.619634 0.192088
1112 2 0.519821 0.628568 0.189772
931 1 0.855752 0.622847 0.197128
953 1 0.785786 0.711383 0.210111
490 1 0.861232 0.727208 0.184606
411 1 0.30117 0.761122 0.182859
905 1 0.382029 0.762552 0.21263
56 1 0.613957 0.769214 0.184769
553 1 0.435044 0.789206 0.18474
472 1 0.610212 0.825084 0.184445
578 1 0.936446 0.844124 0.189955
965 1 0.975179 0.829012 0.210318
919 1 0.350263 0.877741 0.199837
6 1 0.89343 0.877503 0.198418
771 1 0.00267322 0.928791 0.191167
702 1 0.225201 0.957529 0.186788
696 1 0.933477 0.956279 0.183936
655 1 0.172489 0.0145322 0.242655
946 1 0.4967 0.0370216 0.221753
223 1 0.614987 0.0948549 0.226347
605 1 0.626411 0.0896786 0.227526
50 1 0.849353 0.07879 0.223494
863 1 0.724765 0.117525 0.24872
458 1 0.720189 0.212545 0.248074
559 1 0.132101 0.22361 0.218621
897 1 0.798015 0.230274 0.219193
200 1 0.657777 0.264309 0.239984
97 1 0.784094 0.272994 0.216233
496 1 0.997997 0.33654 0.221851
95 1 0.159065 0.398299 0.215863
1068 2 0.381889 0.409881 0.236655
1146 2 0.712317 0.411696 0.245661
705 1 0.153118 0.453099 0.226871
132 1 0.0649418 0.476719 0.217323
1025 2 0.400607 0.493983 0.228782
951 1 0.973432 0.469045 0.247273
538 1 0.201196 0.500578 0.22174
722 1 0.882283 0.529555 0.232797
891 1 0.0523318 0.5408 0.218836
572 1 0.0781554 0.557758 0.230598
298 1 0.833852 0.55526 0.249421
1093 2 0.604784 0.602925 0.233275
615 1 0.253801 0.634392 0.233076
1064 2 0.387231 0.699581 0.215311
226 1 0.92174 0.684847 0.22215
776 1 0.88753 0.721678 0.242276
252 1 0.109169 0.797597 0.217542
845 1 0.91211 0.831156 0.233726
791 1 0.543159 0.873577 0.214823
568 1 0.409111 0.927009 0.245592
657 1 0.912293 0.913978 0.231551
940 1 0.0316492 0.928735 0.247252
211 1 0.0961493 0.981509 0.21796
62 1 0.0578331 0.000610343 0.258038
227 1 0.493072 0.0532088 0.280451
844 1 0.60511 0.0781379 0.26304
475 1 0.714592 0.139422 0.2723
124 1 0.133823 0.16352 0.285501
85 1 0.307442 0.17762 0.266475
376 1 0.483439 0.158046 0.273288
27 1 0.856082 0.177918 0.272236
123 1 0.880178 0.146086 0.26341
560 1 0.0872394 0.233074 0.277977
642 1 0.502721 0.230873 0.275616
552 1 0.667711 0.214391 0.268366
405 1 0.839726 0.275555 0.25919
846 1 0.22897 0.294833 0.250975
964 1 0.830387 0.308993 0.253345
918 1 0.933974 0.300128 0.250631
1105 2 0.472263 0.322419 0.284256
878 1 0.773154 0.404133 0.269727
1092 2 0.265213 0.441119 0.27588
170 1 0.941538 0.429181 0.252212
1126 2 0.423756 0.563002 0.255576
1058 2 0.316897 0.588438 0.265834
1097 2 0.699834 0.612 0.253385
176 1 0.780843 0.627492 0.257264
1094 2 0.573881 0.713951 0.265498
55 1 0.0955397 0.735007 0.262665
87 1 0.827794 0.740183 0.252086
613 1 0.0305089 0.762317 0.254827
582 1 0.249347 0.781596 0.282011
941 1 0.561479 0.769338 0.266748
250 1 0.768 0.770945 0.272269
285 1 0.157903 0.875186 0.257206
855 1 0.655195 0.865667 0.264852
786 1 0.972385 0.876972 0.264774
422 1 0.043489 0.919871 0.270302
135 1 0.688756 0.927964 0.283427
885 1 0.0793684 0.944502 0.252639
848 1 0.232341 0.961401 0.265279
328 1 0.534894 0.956642 0.285185
888 1 0.661268 0.932902 0.278183
416 1 0.805495 0.956521 0.256089
433 1 0.147143 0.0351225 0.303174
544 1 0.16404 0.0137023 0.294516
755 1 0.562566 0.0435113 0.293635
746 1 0.972042 0.117351 0.318034
509 1 0.729051 0.165187 0.294221
588 1 0.921471 0.163225 0.317353
976 1 0.560196 0.211596 0.29777
761 1 0.459109 0.248605 0.29892
661 1 0.750775 0.267348 0.310925
927 1 0.0757027 0.334878 0.286722
1010 2 0.473752 0.347082 0.309458
594 1 0.978957 0.329167 0.312801
686 1 0.24141 0.382478 0.30761
1026 2 0.622324 0.407354 0.296084
656 1 0.738764 0.402885 0.293563
869 1 0.867281 0.396699 0.316005
847 1 0.140266 0.454174 0.306434
690 1 0.230411 0.510996 0.318141
1051 2 0.337629 0.525727 0.292378
1084 2 0.573422 0.506539 0.306433
1015 2 0.452493 0.541554 0.296685
1018 2 0.445443 0.555626 0.305413
1033 2 0.48504 0.566811 0.294092
1052 2 0.391866 0.594241 0.307064
960 1 0.743714 0.596377 0.301595
949 1 0.907038 0.580848 0.305743
371 1 0.994382 0.574957 0.296044
527 1 0.0322291 0.674975 0.307129
715 1 0.921084 0.666704 0.298633
1088 2 0.54288 0.682864 0.306456
1118 2 0.608776 0.693098 0.309688
276 1 0.271894 0.726679 0.287644
428 1 0.295456 0.723229 0.30306
823 1 0.85677 0.731737 0.299663
172 1 0.0478857 0.815393 0.308348
668 1 0.486929 0.821105 0.314271
662 1 0.753186 0.792961 0.29018
261 1 0.459204 0.849723 0.299619
792 1 0.524295 0.828423 0.306282
133 1 0.207585 0.874475 0.300783
382 1 0.328786 0.902738 0.320332
868 1 0.214075 0.965211 0.298261
838 1 0.609507 0.981158 0.314287
198 1 0.596717 0.0221542 0.345912
398 1 0.47487 0.138772 0.334973
911 1 0.0283905 0.159537 0.333541
343 1 0.301134 0.166498 0.336329
330 1 0.438338 0.150195 0.328301
229 1 0.908976 0.166914 0.328901
507 1 0.227061 0.212729 0.34061
591 1 0.567633 0.199699 0.348177
487 1 0.802653 0.186727 0.321675
735 1 0.896305 0.198212 0.340814
189 1 0.0154242 0.234386 0.332686
783 1 0.532768 0.22677 0.321757
501 1 0.891726 0.245811 0.352711
174 1 0.021495 0.266457 0.346735
1117 2 0.470447 0.303054 0.342295
424 1 0.943675 0.351183 0.336801
1134 2 0.645231 0.397509 0.356322
1059 2 0.684055 0.41741 0.33059
1149 2 0.592191 0.458941 0.349909
785 1 0.90477 0.469943 0.337953
806 1 0.154728 0.516472 0.34675
162 1 0.20685 0.530514 0.349804
49 1 0.950054 0.561869 0.32681
1116 2 0.669667 0.586239 0.353485
1132 2 0.331297 0.61224 0.322098
231 1 0.915607 0.609232 0.354044
1137 2 0.491501 0.66341 0.354849
752 1 0.255472 0.710796 0.341177
450 1 0.510131 0.772794 0.356721
384 1 0.86534 0.767141 0.337359
659 1 0.0812673 0.858769 0.335138
221 1 0.628601 0.889173 0.328922
418 1 0.0732978 0.915711 0.352923
71 1 0.189023 0.91452 0.333164
913 1 0.39846 0.911663 0.326865
859 1 0.743019 0.914996 0.339759
825 1 0.25846 0.935166 0.340548
77 1 0.425772 0.945399 0.326907
703 1 0.343964 0.997343 0.345367
724 1 0.554708 0.97515 0.347041
882 1 0.0446844 0.0101373 0.377852
419 1 0.578629 0.0106126 0.366704
294 1 0.529069 0.0663643 0.384
667 1 0.765104 0.100101 0.392306
100 1 0.845071 0.103789 0.374818
873 1 0.731132 0.135205 0.385336
522 1 0.105799 0.160253 0.365339
562 1 0.626596 0.197678 0.382416
392 1 0.0340556 0.373142 0.390417
1108 2 0.680039 0.419108 0.389024
728 1 0.160321 0.509156 0.377138
1148 2 0.442974 0.569432 0.371434
367 1 0.162473 0.685749 0.385975
69 1 0.2544 0.701694 0.367636
876 1 0.261421 0.702884 0.373057
1075 2 0.624126 0.687091 0.39005
933 1 0.996473 0.722578 0.374185
532 1 0.45081 0.762622 0.388245
178 1 0.507216 0.78535 0.378615
359 1 0.83678 0.767618 0.360483
529 1 0.855404 0.772378 0.359744
697 1 0.404165 0.799095 0.392687
835 1 0.895331 0.82569 0.36569
624 1 0.0039787 0.870017 0.380226
327 1 0.0389058 0.889473 0.376601
503 1 0.610928 0.86841 0.374369
426 1 0.240073 0.911547 0.377974
43 1 0.560535 0.907917 0.366878
706 1 0.0240942 0.951889 0.392575
106 1 0.581541 0.960991 0.381846
604 1 0.700123 0.959385 0.377499
633 1 0.293747 0.0132339 0.421783
459 1 0.387934 0.0027613 0.409204
375 1 0.0681891 0.0535138 0.40605
533 1 0.230502 0.0478606 0.393599
694 1 0.0371322 0.0808832 0.404464
654 1 0.828351 0.0884991 0.404663
583 1 0.759215 0.131576 0.39851
649 1 0.021609 0.182032 0.404223
547 1 0.57162 0.218089 0.421791
29 1 0.0475566 0.28312 0.402816
741 1 0.581618 0.254205 0.422883
721 1 0.0659426 0.296628 0.418569
1066 2 0.501476 0.307965 0.422877
1035 2 0.507222 0.374217 0.414629
1003 2 0.387511 0.39876 0.420505
502 1 0.0053823 0.460369 0.422776
639 1 0.904829 0.457631 0.406816
521 1 0.118019 0.540156 0.394842
1030 2 0.466862 0.542033 0.409927
600 1 0.912035 0.570382 0.41682
1045 2 0.412752 0.61492 0.424434
635 1 0.260169 0.660344 0.405135
356 1 0.735866 0.701518 0.416226
415 1 0.558978 0.744654 0.408014
168 1 0.657508 0.739955 0.428498
890 1 0.894136 0.737693 0.404099
952 1 0.913892 0.7844 0.418801
534 1 0.210794 0.811174 0.408431
454 1 0.506326 0.813733 0.404493
821 1 0.107385 0.827001 0.413191
155 1 0.439449 0.823372 0.414704
857 1 0.598134 0.835628 0.399264
317 1 0.175515 0.880016 0.423018
281 1 0.173553 0.909706 0.420614
575 1 0.623724 0.927317 0.42261
495 1 0.981549 0.901257 0.428393
505 1 0.390192 0.952247 0.410113
141 1 0.31451 0.971763 0.417515
824 1 0.429998 0.979319 0.414248
564 1 0.168979 0.0266236 0.462699
259 1 0.4707 0.0605378 0.45848
467 1 0.89939 0.0540516 0.444427
154 1 0.831147 0.0852282 0.430978
470 1 0.851435 0.0720209 0.455689
377 1 0.145484 0.153416 0.460629
181 1 0.0300581 0.186736 0.463568
60 1 0.64284 0.211546 0.45872
681 1 0.711561 0.208393 0.462962
970 1 0.974608 0.238916 0.460852
566 1 0.992162 0.259384 0.46136
1042 2 0.391939 0.322989 0.435616
1089 2 0.552352 0.383143 0.455298
875 1 0.786719 0.380463 0.437299
713 1 0.0840961 0.402358 0.432861
769 1 0.980926 0.426992 0.460387
789 1 0.177931 0.491132 0.452609
1101 2 0.448741 0.493662 0.440046
1083 2 0.682991 0.526475 0.430097
499 1 0.111237 0.559316 0.430426
517 1 0.208041 0.539684 0.462793
153 1 0.743654 0.588888 0.442127
290 1 0.919177 0.606202 0.432563
1004 2 0.466898 0.656689 0.444924
156 1 0.922573 0.681886 0.453204
390 1 0.977966 0.681588 0.442112
812 1 0.670716 0.73002 0.446524
695 1 0.831247 0.77048 0.462898
758 1 0.879084 0.768933 0.462307
185 1 0.242626 0.812307 0.445175
542 1 0.651861 0.830514 0.45622
865 1 0.500379 0.862881 0.445218
704 1 0.577552 0.914943 0.453689
268 1 0.946862 0.909767 0.45929
699 1 0.120065 0.939099 0.436631
556 1 0.497944 0.946537 0.44189
992 1 0.792227 0.958436 0.434027
201 1 0.403758 0.965399 0.462978
996 1 0.973405 0.0207354 0.499692
580 1 0.220089 0.0370957 0.467233
788 1 0.421554 0.0582789 0.493858
950 1 0.624685 0.0855297 0.498481
466 1 0.807827 0.146932 0.494074
233 1 0.0625472 0.230171 0.48098
64 1 0.0836106 0.243439 0.472562
954 1 0.701984 0.241296 0.469792
650 1 0.772429 0.221247 0.497965
230 1 0.83431 0.24106 0.487351
113 1 0.736436 0.288124 0.499839
1138 2 0.386169 0.337329 0.486806
61 1 0.756612 0.379096 0.468439
369 1 0.0172195 0.407717 0.491901
1019 2 0.285202 0.397869 0.468583
75 1 0.888285 0.402838 0.498858
364 1 0.250041 0.43092 0.465066
208 1 0.759234 0.447699 0.472849
471 1 0.764768 0.45109 0.469127
672 1 0.203813 0.488812 0.464603
584 1 0.761795 0.487564 0.492696
687 1 0.00651638 0.520764 0.472785
23 1 0.108736 0.528379 0.472999
36 1 0.811836 0.528559 0.499511
1001 2 0.585056 0.536502 0.494298
498 1 0.200428 0.597697 0.49962
1079 2 0.321866 0.597101 0.466892
93 1 0.791195 0.621972 0.475688
144 1 0.889376 0.741743 0.474791
546 1 0.0337823 0.77893 0.472635
291 1 0.0784066 0.780538 0.496493
218 1 0.443194 0.763699 0.487663
590 1 0.593489 0.764769 0.477394
337 1 0.267734 0.811953 0.498621
296 1 0.456584 0.804694 0.487027
504 1 0.0115931 0.845986 0.480475
874 1 0.345145 0.848663 0.472707
576 1 0.803702 0.827778 0.467653
698 1 0.886465 0.823554 0.474571
607 1 0.148383 0.87395 0.474008
197 1 0.377576 0.918098 0.480847
997 1 0.365675 0.901677 0.481399
173 1 0.404409 0.898641 0.46457
915 1 0.909259 0.911494 0.482207
981 1 0.96257 0.914052 0.470027
973 1 0.135955 0.999315 0.481353
292 1 0.557206 0.969624 0.469913
20 1 0.110668 0.00270906 0.531155
44 1 0.124295 0.0244848 0.516467
827 1 0.728744 0.00134052 0.530067
587 1 0.992623 0.011872 0.532783
579 1 0.566382 0.177219 0.511606
10 1 0.142096 0.199174 0.511846
685 1 0.249789 0.203279 0.514205
322 1 0.835737 0.230173 0.511745
1023 2 0.350886 0.342656 0.52614
1013 2 0.598402 0.346225 0.500405
804 1 0.0778485 0.39921 0.517526
333 1 0.839794 0.415216 0.528824
169 1 0.767445 0.451985 0.517935
32 1 0.243202 0.498096 0.507176
1135 2 0.601923 0.516957 0.505778
1060 2 0.511963 0.568335 0.500571
620 1 0.210424 0.595378 0.518635
443 1 0.258859 0.638992 0.5322
1080 2 0.336087 0.611026 0.523415
830 1 0.003549 0.648094 0.518537
641 1 0.0362739 0.655531 0.504879
1016 2 0.440629 0.659726 0.517817
809 1 0.783939 0.671001 0.505498
74 1 0.999625 0.698967 0.532153
802 1 0.999683 0.679689 0.532385
608 1 0.659589 0.71848 0.501189
245 1 0.734499 0.720981 0.535053
402 1 0.9174 0.739188 0.530837
232 1 0.777938 0.80059 0.513806
469 1 0.782817 0.797257 0.500199
489 1 0.464916 0.851044 0.503334
21 1 0.128569 0.858721 0.526486
164 1 0.348182 0.889065 0.522635
301 1 0.214846 0.923753 0.51713
853 1 0.295409 0.933094 0.511045
535 1 0.332359 0.955229 0.52792
740 1 0.4366 0.934343 0.502087
589 1 0.745283 0.963916 0.528268
445 1 0.971795 0.960524 0.52108
742 1 0.998213 0.965283 0.50655
380 1 0.593504 0.0143131 0.559769
11 1 0.742786 0.010624 0.557237
17 1 0.884752 0.0297234 0.560507
841 1 0.865118 0.0299009 0.544303
986 1 0.444401 0.0505481 0.561376
477 1 0.272155 0.112247 0.539532
570 1 0.839955 0.12998 0.567549
961 1 0.904273 0.116711 0.55745
434 1 0.437684 0.155265 0.545864
563 1 0.00149848 0.184896 0.551506
716 1 0.12383 0.203758 0.567069
818 1 0.25431 0.181922 0.570708
627 1 0.581378 0.213693 0.540536
972 1 0.609043 0.187573 0.537939
195 1 0.0116749 0.219286 0.547699
636 1 0.0972979 0.284975 0.568593
417 1 0.0937892 0.315497 0.560128
1125 2 0.513735 0.340692 0.536464
1144 2 0.285264 0.431607 0.543001
528 1 0.914051 0.447824 0.569635
397 1 0.031979 0.471683 0.570326
186 1 0.0498891 0.486734 0.54505
1041 2 0.293478 0.488964 0.548657
810 1 0.911017 0.466862 0.549208
733 1 0.930059 0.504883 0.560237
745 1 0.0547728 0.567058 0.538861
182 1 0.180017 0.547068 0.565562
1090 2 0.34831 0.549267 0.547765
675 1 0.794585 0.587883 0.547313
548 1 0.0410948 0.679631 0.553416
90 1 0.678151 0.687366 0.553424
1020 2 0.489304 0.72693 0.540246
1002 2 0.584531 0.719851 0.570731
284 1 0.768056 0.718484 0.552279
979 1 0.490436 0.758408 0.570889
403 1 0.78103 0.771141 0.566779
828 1 0.829164 0.754005 0.563473
558 1 0.988086 0.760668 0.54127
344 1 0.687502 0.843075 0.564533
676 1 0.681731 0.853785 0.556594
803 1 0.791209 0.850869 0.561378
959 1 0.520906 0.870682 0.560109
665 1 0.894858 0.886746 0.538002
117 1 0.326054 0.994023 0.545788
943 1 0.9643 0.997951 0.569133
338 1 0.32308 0.00687739 0.588313
53 1 0.121976 0.052633 0.602754
215 1 0.39115 0.0586407 0.57429
889 1 0.42358 0.107133 0.587309
22 1 0.646403 0.0999335 0.581966
331 1 0.760583 0.113975 0.585677
482 1 0.816453 0.119568 0.576514
288 1 0.971209 0.113261 0.571434
139 1 0.452858 0.184481 0.572678
332 1 0.481002 0.194062 0.599443
854 1 0.132342 0.264388 0.573253
817 1 0.215463 0.290272 0.604406
134 1 0.265502 0.290985 0.586225
531 1 0.77904 0.319486 0.59579
887 1 0.827235 0.342928 0.593721
726 1 0.228082 0.37238 0.597238
1115 2 0.659896 0.369908 0.595516
1131 2 0.401825 0.476827 0.577864
1061 2 0.477062 0.489085 0.588222
1145 2 0.36268 0.570955 0.595819
861 1 0.799645 0.635128 0.595844
842 1 0.0970812 0.643874 0.585726
666 1 0.207393 0.654049 0.605567
816 1 0.286944 0.673563 0.581318
773 1 0.687199 0.746035 0.606938
16 1 0.0754307 0.763527 0.590818
463 1 0.734621 0.778698 0.581849
239 1 0.778058 0.819277 0.581653
603 1 0.199018 0.89841 0.582597
307 1 0.381984 0.0075344 0.63067
324 1 0.446005 0.00432118 0.626069
910 1 0.314873 0.0692949 0.639795
906 1 0.676269 0.0612031 0.639982
616 1 0.314041 0.0916655 0.622456
242 1 0.301906 0.126473 0.626614
4 1 0.415846 0.11737 0.63033
188 1 0.420427 0.111656 0.608676
270 1 0.158277 0.168299 0.608812
622 1 0.598392 0.170145 0.63016
265 1 0.385743 0.184186 0.61868
653 1 0.707575 0.216613 0.617828
381 1 0.0433307 0.259156 0.631542
840 1 0.0696899 0.278849 0.613308
794 1 0.808667 0.259512 0.617494
72 1 0.99829 0.256657 0.636207
663 1 0.0545189 0.299972 0.637547
937 1 0.155309 0.286763 0.62225
12 1 0.754525 0.299259 0.639081
640 1 0.698003 0.34168 0.613651
47 1 0.786715 0.322047 0.639248
793 1 0.824797 0.355841 0.620325
902 1 0.0154324 0.371966 0.635464
137 1 0.126697 0.389399 0.630318
147 1 0.244683 0.394575 0.628114
1113 2 0.500561 0.425095 0.642326
1143 2 0.51011 0.418579 0.610167
784 1 0.772976 0.412128 0.636396
1123 2 0.304186 0.453684 0.637355
1046 2 0.478993 0.439344 0.6156
1119 2 0.449843 0.517883 0.626944
1087 2 0.566405 0.568398 0.632434
1136 2 0.558401 0.543676 0.6281
763 1 0.760432 0.588602 0.629888
25 1 0.784531 0.615733 0.626758
870 1 0.10333 0.670533 0.640576
1147 2 0.663394 0.670974 0.620657
412 1 0.313066 0.704148 0.62093
249 1 0.289982 0.727115 0.61473
79 1 0.877241 0.785245 0.617431
274 1 0.938761 0.764361 0.611955
191 1 0.0305109 0.796134 0.62961
938 1 0.154628 0.834867 0.611438
161 1 0.334792 0.840996 0.61311
300 1 0.951261 0.845399 0.628501
42 1 0.89099 0.867532 0.60853
991 1 0.321111 0.911502 0.612054
193 1 0.376445 0.914179 0.607518
357 1 0.516921 0.895854 0.625824
880 1 0.547921 0.903768 0.621954
767 1 0.666207 0.948273 0.617695
303 1 0.65193 0.982008 0.61099
70 1 0.863746 0.974513 0.635723
408 1 0.233 0.0248504 0.661051
68 1 0.840009 0.0280633 0.660276
360 1 0.643068 0.0362147 0.660408
5 1 0.954313 0.131949 0.673404
254 1 0.485344 0.172764 0.643297
618 1 0.113713 0.179072 0.655539
901 1 0.254194 0.234346 0.655204
739 1 0.310658 0.229587 0.662667
128 1 0.698592 0.236191 0.656924
94 1 0.88899 0.258801 0.674133
1032 2 0.474999 0.30928 0.642974
1127 2 0.478926 0.313505 0.6678
1065 2 0.618898 0.316628 0.64574
762 1 0.955274 0.294975 0.645015
599 1 0.969078 0.299497 0.654455
63 1 0.841995 0.407012 0.645212
217 1 0.851992 0.422184 0.651184
864 1 0.236714 0.448543 0.66154
1028 2 0.512551 0.445087 0.668635
224 1 0.208276 0.498879 0.667521
1111 2 0.46311 0.487985 0.644347
1012 2 0.446156 0.551501 0.658041
1107 2 0.58702 0.537965 0.671438
523 1 0.260939 0.593662 0.677713
753 1 0.158542 0.620079 0.670388
236 1 0.873959 0.63412 0.659659
1077 2 0.528985 0.648455 0.668537
1022 2 0.476926 0.694507 0.643851
963 1 0.748896 0.69838 0.675639
974 1 0.103393 0.732532 0.660738
921 1 0.604256 0.729319 0.671485
277 1 0.928882 0.714444 0.665351
325 1 0.345734 0.750976 0.659155
86 1 0.63984 0.791078 0.648529
127 1 0.174442 0.840939 0.659749
948 1 0.203953 0.835643 0.648831
673 1 0.583914 0.834989 0.656398
962 1 0.0555053 0.876817 0.669706
708 1 0.153559 0.873545 0.676095
448 1 0.547204 0.863548 0.652532
768 1 0.594032 0.891513 0.663651
83 1 0.790556 0.881696 0.669801
118 1 0.0563432 0.960948 0.653266
183 1 0.653596 0.986651 0.649111
335 1 0.829357 0.00355273 0.710799
179 1 0.466475 0.0525782 0.681982
630 1 0.915634 0.068882 0.699879
772 1 0.939493 0.0604322 0.683209
612 1 0.717682 0.0801864 0.692451
866 1 0.782774 0.0798295 0.694236
462 1 0.84632 0.0972024 0.680045
115 1 0.732856 0.116422 0.708662
160 1 0.74042 0.245178 0.711807
235 1 0.137995 0.27576 0.693683
58 1 0.691037 0.256245 0.713283
629 1 0.158047 0.288314 0.698037
813 1 0.722576 0.329011 0.694841
837 1 0.892267 0.339661 0.685643
334 1 0.947542 0.334545 0.691666
898 1 0.976101 0.331571 0.707987
799 1 0.0488711 0.377266 0.708718
1014 2 0.401107 0.409478 0.687535
1140 2 0.558815 0.510894 0.688387
525 1 0.182873 0.548444 0.703127
994 1 0.248144 0.559393 0.710428
1049 2 0.394422 0.544451 0.684494
819 1 0.88865 0.539995 0.696959
394 1 0.805776 0.669107 0.682917
461 1 0.177705 0.693324 0.68861
492 1 0.736163 0.688982 0.71325
731 1 0.0495458 0.715578 0.711611
942 1 0.228996 0.735449 0.69691
3 1 0.29379 0.722538 0.691522
833 1 0.28915 0.739139 0.704435
228 1 0.7796 0.739852 0.685245
352 1 0.840589 0.782036 0.679487
248 1 0.42743 0.814286 0.710555
101 1 0.570762 0.802504 0.681365
15 1 0.616993 0.794293 0.683708
146 1 0.970359 0.831005 0.708767
736 1 0.0668095 0.8673 0.711804
944 1 0.248996 0.87426 0.691058
637 1 0.339731 0.861767 0.713696
18 1 0.446889 0.870392 0.68158
363 1 0.428861 0.862003 0.689906
811 1 0.292078 0.955833 0.687432
289 1 0.0854986 0.975171 0.699228
925 1 0.186886 0.999029 0.688015
778 1 0.228654 0.989212 0.679788
621 1 0.692925 0.996532 0.710751
920 1 0.654193 0.0297927 0.726519
240 1 0.839711 0.0278899 0.745885
150 1 0.193733 0.0628738 0.720017
643 1 0.60993 0.0900052 0.718014
744 1 0.438813 0.122432 0.71774
557 1 0.84668 0.144982 0.716605
903 1 0.238484 0.201746 0.74075
220 1 0.379378 0.20466 0.728781
936 1 0.547224 0.185799 0.720959
432 1 0.854418 0.200675 0.747911
436 1 0.135374 0.235661 0.749898
511 1 0.781592 0.214955 0.743446
595 1 0.241106 0.276476 0.739248
1114 2 0.532682 0.293635 0.730518
206 1 0.856506 0.294326 0.741466
346 1 0.905116 0.288614 0.737304
1063 2 0.324111 0.337932 0.742311
916 1 0.271754 0.367568 0.720626
59 1 0.144726 0.417072 0.731103
425 1 0.810519 0.393928 0.748631
267 1 0.0464351 0.434327 0.739986
732 1 0.0394753 0.460685 0.725384
205 1 0.0380482 0.4755 0.73296
617 1 0.164007 0.466991 0.722325
347 1 0.861277 0.490553 0.722772
867 1 0.0227603 0.531728 0.74857
907 1 0.178528 0.513878 0.742541
1071 2 0.276436 0.567657 0.732481
1139 2 0.624564 0.552812 0.732529
536 1 0.757936 0.638409 0.747822
345 1 0.101367 0.677737 0.730107
388 1 0.170448 0.712307 0.744851
843 1 0.29766 0.767641 0.747998
247 1 0.517508 0.756039 0.744358
51 1 0.270591 0.815834 0.728278
939 1 0.440996 0.816607 0.715121
275 1 0.120655 0.854569 0.738101
119 1 0.71975 0.839456 0.734007
318 1 0.916752 0.84255 0.731481
592 1 0.81513 0.88515 0.718835
163 1 0.149992 0.919362 0.714663
194 1 0.553811 0.899669 0.734933
336 1 0.399295 0.958157 0.745202
729 1 0.555896 0.935843 0.714971
719 1 0.973638 0.937927 0.741111
103 1 0.585292 0.996831 0.741972
569 1 0.66145 0.996831 0.743788
860 1 0.33534 0.0652562 0.760207
121 1 0.739636 0.0625202 0.776836
574 1 0.718929 0.0368162 0.770073
514 1 0.50658 0.0909608 0.77878
430 1 0.975852 0.138797 0.757972
540 1 0.475051 0.174675 0.763758
790 1 0.991621 0.175747 0.785241
674 1 0.0851546 0.192822 0.766752
884 1 0.446373 0.193477 0.761235
679 1 0.522711 0.202223 0.755711
348 1 0.920401 0.185624 0.783409
339 1 0.773798 0.229951 0.783639
429 1 0.778559 0.234948 0.77063
370 1 0.24896 0.269517 0.766169
196 1 0.171732 0.301527 0.758813
598 1 0.856745 0.306287 0.773961
1031 2 0.5705 0.3905 0.755426
1062 2 0.375077 0.410909 0.783908
872 1 0.893407 0.492399 0.750014
33 1 0.106953 0.551601 0.753795
530 1 0.21286 0.53881 0.774248
305 1 0.803686 0.549817 0.771569
241 1 0.0813135 0.636209 0.772861
1053 2 0.660893 0.635517 0.779659
1043 2 0.452083 0.664879 0.757741
269 1 0.292123 0.713974 0.752969
928 1 0.931025 0.737179 0.772811
171 1 0.921507 0.769964 0.784378
9 1 0.129344 0.89152 0.775889
834 1 0.442904 0.89396 0.782049
717 1 0.733142 0.922697 0.774352
908 1 0.880226 0.963394 0.754626
978 1 0.332718 0.997428 0.778038
263 1 0.430771 0.976187 0.773665
148 1 0.539656 0.996357 0.773805
922 1 0.770511 0.977733 0.752257
977 1 0.786399 0.00968727 0.814026
280 1 0.862796 0.0166476 0.795691
287 1 0.525023 0.0665088 0.814064