LAMMPS data file via write_data, version 23 Jun 2022, timestep = 300000

1146 atoms
2 atom types

-20 20 xlo xhi
-20 20 ylo yhi
-20 20 zlo zhi

Masses

1 1
2 1

Pair Coeffs # lj/cut

1 1 1
2 0.5 3

Atoms # atomic

80 1 0.614693910098337 -19.044495218272726 -19.461601184877203 0 0 0
336 1 17.047845659592014 -18.109823747716547 -18.839434540984456 -1 0 1
974 1 18.670772976076663 -18.3893518827848 -18.668394353601446 0 1 1
137 1 -2.7449813724656593 -14.88581647216187 19.085231939554657 0 1 -1
1002 1 12.683081601327537 -12.973971085526212 19.751816945284503 -1 0 0
846 1 2.2812594596507982 -14.122633417763861 -19.460929323217403 -1 0 1
590 1 -11.715888511841989 -11.728419155398218 -19.927885569687174 0 1 1
375 1 -8.056123127574512 -12.87530999513895 -18.027843859001933 1 1 0
50 1 19.616806957990246 -12.341271990377521 -17.41543803372672 -1 0 0
962 1 -19.157204557489642 -10.659853625096279 -18.87410475882979 1 0 1
9 2 -16.41613388581793 -9.808037194522578 19.17742992712436 0 0 -1
362 1 -2.149873068024732 -11.846663388022888 -19.22061923883842 0 1 1
1034 1 8.090135187258001 -10.105705426640261 -19.102218004885646 -1 1 1
738 1 1.9407184174951748 -9.068183672817446 -18.88630086238531 0 0 1
1102 2 -16.524732425119183 -6.781263464297788 19.479914199687734 1 0 0
634 1 -1.4249419947156576 -8.211796738169205 19.88790247267259 0 1 -1
814 1 16.149527355441606 -8.779649132700738 19.519663044327704 -1 -1 0
321 1 -9.321385693521613 -6.5780675541962905 -19.456526336167574 0 -1 0
658 1 -0.8180622714060839 -6.571842558251333 19.33413344599306 0 0 0
699 1 -4.299772180859641 -2.432467428399621 -18.08070747636581 0 0 1
198 1 -5.28271028536576 -1.6316856695155377 -18.35302832682744 0 0 0
352 1 10.377663651382528 0.3853909302307401 -19.881142445767633 0 0 0
329 1 -5.639912779058644 0.9896905284867706 18.829519606701766 0 0 0
995 1 -15.963174448085502 3.9787522069796246 19.575664029083796 0 0 -1
303 2 10.119617146349764 1.1569216766060342 -18.016409176329056 0 -1 0
120 1 -9.34993927441559 4.212868769734171 -19.467643914468933 1 0 0
600 1 -5.971256374576198 5.200894107332309 -19.761019386811533 1 -1 0
322 1 8.765832312179185 7.069012970961869 -19.806856271308636 0 -1 0
161 1 -3.301624421690813 5.627880302657628 -19.620323339659983 1 -1 0
102 1 1.5580064019611648 7.395124559217501 19.30335976373287 0 0 -1
450 1 8.925863269781127 7.758884425237281 -18.633292531404585 1 0 1
1035 1 10.139426426440922 8.056873638884952 -18.420458342115754 0 1 1
331 1 -14.34774158455376 8.649110020368811 19.624881374315198 1 0 -1
611 1 -4.261057823889796 8.264025980004211 -19.78850682705927 0 0 0
346 1 -12.066639937098994 12.378653267025355 -19.42912847463127 1 0 0
312 1 12.53366392613934 12.000769683939064 -18.770713921743365 0 0 0
91 1 10.865005637244792 12.831113093700456 -18.950861298644927 -1 0 0
118 1 13.243908321727455 14.984731594369437 -17.92258919220472 0 -1 0
1127 1 -4.873681617528517 18.20236206309301 -17.91740165769146 0 -1 1
373 1 18.968608501828612 16.424651984922612 -19.1647902032868 -1 0 1
609 1 -4.4730792507245996 19.849948742419087 19.850730004402433 0 -1 0
806 1 14.123906869633986 18.86046354890566 -19.369317752273055 0 0 0
164 1 -5.41801604277703 -19.79294877105599 -16.95845343905041 0 1 0
292 1 -17.31770833871007 -19.723860535398046 -19.03593503947183 0 0 0
1123 1 5.008726344553958 -16.971210359846314 -17.578412588381145 0 0 1
562 1 9.74394075954027 -16.565648747376848 19.40580692954357 0 0 0
278 1 -19.293100821597825 -16.167275134171927 -18.2450715141743 0 1 0
755 1 1.203794527363654 -13.136924835400412 19.628237638976472 0 0 0
698 2 16.347937680406144 -12.680505800258336 -16.87723757489974 0 0 0
1060 1 -11.156814301305177 -12.411991616903185 -19.272041474562354 0 0 1
693 1 4.564038868405598 -12.935096154359597 -18.873416375737225 0 0 1
851 1 -8.00804443532224 -11.406456171062441 -17.74189656569302 -1 1 0
757 1 -6.864235941835331 -10.48831618619631 -17.297373700046073 0 1 1
277 1 -18.19470030141119 -9.021593781332776 -18.887129445980555 1 0 0
85 1 11.607385620228866 -9.51644748545514 -18.839938008642637 -1 0 0
927 1 -11.000451575074804 -8.366747208169397 -16.578066871463864 1 0 1
936 1 13.758999802400346 -6.512875656776053 -16.876526803527813 0 1 1
493 1 -17.765322364971247 -4.504816505862683 -16.794037533392913 0 0 0
335 1 -0.30905831465181866 -4.172237231476917 -16.538292860708363 1 0 0
972 1 11.701263478242865 -4.447153232086621 -17.66102964045397 0 0 1
1045 1 9.438331692726235 -2.8818577681051236 -18.709311477944905 0 0 1
188 1 10.311256717291243 -2.039890106441968 -19.14396517693211 0 1 0
366 1 15.705481190656108 0.9642535591046407 -17.27517599525826 0 -1 0
178 2 -3.7625340307193964 1.7777632481916146 -18.270269017162384 0 0 0
8 1 16.395949106836024 0.450466361994961 -16.562727897094813 -1 0 0
586 1 -1.1902147662510467 2.3752126706559022 -18.22899213358876 0 1 1
715 1 -1.9924674510563067 1.055074584991698 -17.850601078339796 0 1 0
477 1 -18.888018331891153 5.562017083631337 -17.61610129949663 1 0 1
1014 1 -17.745396375836787 4.376179044778462 -18.26275889265477 0 0 1
623 1 -0.11699436087244072 2.8346962750092017 -16.7179534519367 -1 0 1
567 2 4.335262412091599 3.5639016180520167 -17.533635750744306 0 -1 0
27 1 -17.23529877358342 5.228872236866447 -17.833737565963215 1 0 0
778 1 -17.921850237736194 5.712256333063938 -18.674525891288333 0 -1 1
813 1 3.97763459244995 5.377876094314291 -16.25992247074159 0 0 0
519 1 8.522363476282159 6.86336126285211 -17.73354842824151 0 -1 0
1006 1 8.182826992668941 8.820696687811775 -18.198855246782816 -1 0 1
620 2 -19.17776839315185 12.233257088158277 19.480540947162147 0 0 -1
314 1 4.38430538834458 8.36354743365393 -17.14241292210464 0 0 0
132 2 11.997254183858866 13.352802179019779 -17.410640547856907 0 0 0
1054 1 -11.842515281323651 13.854095353647228 -17.71107253696016 0 0 1
593 1 6.137673060493752 14.273315853929178 -18.432018708797703 0 0 0
912 1 -15.305496293532387 16.847630937136145 -19.752862649223296 0 -1 1
214 1 14.989960209084703 16.195055543076258 -17.36528569041567 1 -2 0
908 1 17.960155029550574 16.29531961664145 -18.262306916580595 0 -1 1
595 1 15.78124138566814 17.315128267677327 -16.829757749806944 0 -1 0
76 1 -16.017840628825518 -18.56038884209392 -17.588143381492856 1 0 0
602 1 -10.847613308571663 19.870720914469345 -18.386377944516127 0 -1 0
72 1 -10.712842777666461 -18.141595247280165 -17.284220414206267 0 0 0
487 1 4.3910019774099025 -17.55460820017109 -16.57557400889683 -1 1 1
536 1 12.996251348995123 -19.62535797348463 -16.386385055971733 -1 1 0
1125 1 18.64181791714641 -15.082066772458091 -14.920699566337783 -1 0 1
655 1 -5.034041410878556 -13.892568380372273 -16.73934819856494 0 0 1
943 1 9.012846530709703 -14.9134664963501 -13.537206523010711 0 0 1
136 2 -13.683481863149735 -9.821045831969721 -16.710018608288234 0 0 0
1084 1 0.9935968255920784 -10.814747025733087 -16.59335200134772 0 0 0
584 1 19.057052957976317 -11.076478662525046 -15.974038396894493 0 1 0
680 1 15.627203682386417 -10.22801334916133 -16.096167911441608 0 0 0
51 1 -16.905159038333643 -7.644142292602308 -17.0265963555692 0 0 0
524 1 -19.627734927247076 -6.3703155269407805 -15.323286722792806 0 0 0
1134 1 -9.773625944558667 -7.820554018625204 -16.47683101499258 0 0 1
185 2 6.587224728468881 -8.437891985870909 -16.40739043554148 0 0 0
1047 1 18.77022353092281 -6.769717786013233 -15.603220558560047 -1 0 1
1080 1 -17.88288065800313 -5.585836290354282 -16.870624626920886 1 1 1
222 1 -16.86896677175924 -3.703782888356188 -17.684550866212998 0 0 0
475 1 -3.064620869777267 -5.752053514495169 -15.383247623379495 1 0 0
319 1 -10.592708031334608 1.8444646741604958 -14.95313083889221 1 1 0
1048 1 -6.606752759707909 -1.324223129237582 -16.570603332602293 0 0 1
495 1 -14.053736965185669 0.7736945622275455 -16.54713851554995 1 0 0
799 1 2.257922584392099 1.4121479766719611 -17.36475287852463 0 0 1
379 2 -14.137351303795064 4.476882503408277 -16.08509414998605 0 0 0
64 1 -9.474725290933776 3.2934392153085197 -17.489731667414684 0 0 0
239 1 -2.845475809156508 4.029055815827374 -16.829556383291514 1 0 0
316 1 3.125062693538222 3.4540161166024745 -16.308826772116635 -1 0 0
38 1 -5.195203751075878 4.864458235118807 -15.70909474607552 0 1 0
691 1 -4.0357117533001645 6.206377689919252 -16.47613574755451 0 1 1
900 1 -1.342076288563385 4.771641688561103 -16.25822607875168 1 0 1
925 1 14.215883227674848 6.992002995931743 -14.829732003888463 0 0 0
271 1 -16.56779370154177 7.211154129595901 -17.03922790156605 1 0 0
668 1 -13.73856691744593 8.11781250728442 -14.882390679216872 0 0 0
251 1 -19.132674713894644 8.56776750608897 -16.26616706267939 1 -1 0
34 1 -18.116669769307627 10.974020921505131 -15.645507597433177 1 0 0
730 1 -17.335020549954134 11.59616858083548 -16.263237283039043 0 -1 1
963 1 13.588057149283244 12.722056148204256 -16.20637655244051 0 0 1
351 1 -7.614251433268755 13.621401851756527 -16.105492994034922 0 -1 0
921 2 -4.306292928833143 13.542091299815318 -16.588730766430416 0 0 1
235 1 -8.786966016376816 16.052515092772815 -15.83571235759496 0 0 0
100 1 13.779153873040194 15.790590632991021 -16.553910872937116 0 -1 0
923 1 -4.667020288504184 16.884938938953535 -17.802363416677522 0 0 0
736 2 -11.781730027282231 -19.872385367313285 -13.914781276155912 0 0 1
378 1 -19.637348832032064 -18.146213170804018 -16.084887565480344 0 1 0
494 1 -5.3341670972662065 -17.88070946079809 -15.710326707305734 0 1 0
888 1 14.765305391033062 -17.488054559749607 -15.683359813182383 0 0 0
772 1 -5.11702122599041 -14.76520572030497 -16.093056501086146 1 0 1
696 1 -3.150437305315131 -14.727684058037536 -14.980456953540426 0 0 1
682 1 6.768130656918021 -14.92366567560337 -12.17443544739384 -1 0 1
234 1 16.744878726389775 -10.981838344234513 -15.445989657757254 -1 0 0
363 1 -6.059173890948774 -11.462258090624308 -15.553529271269909 0 0 1
1027 1 -17.124094949666485 -10.41766822166949 -15.735942358915125 -1 1 1
737 2 10.125377121247793 -11.978750956469058 -15.320682856561316 0 0 1
490 2 -11.192765461856471 -6.98224675703249 -14.553653103890893 1 0 1
207 1 -7.268266093571507 -4.326449868554603 -14.258674365382488 1 1 0
60 1 3.341361222764699 -5.024802883345255 -14.701438400461866 1 1 0
716 1 11.10178874997167 -1.3296917796284473 -16.084332694769888 0 1 1
635 1 12.233249691983065 -2.839727794481405 -15.653689884517716 0 0 0
407 1 -12.824913028142005 -0.6843158647158285 -14.743311412950046 0 -1 0
720 1 -1.932183112964538 0.3227403125682695 -16.711340519133877 0 0 1
302 1 13.680030077552248 -0.011003124853794503 -14.711685827765029 0 0 0
558 1 -10.255040943781275 0.6736907439675709 -12.547876235101734 0 0 0
65 1 19.238547138901225 0.9884182186293875 -16.65714834984181 0 0 1
440 1 -18.25260131502374 0.6551773834078153 -14.523270766619863 1 -1 0
823 1 15.67518729206953 3.2226531775726897 -15.008011272207021 -1 0 0
1010 1 18.272857772543848 3.450462616504268 -15.57925950189131 -1 0 1
380 2 19.849876628123823 5.143427325470948 -14.425694425265869 0 0 0
669 1 -5.692852160184499 5.770708088689089 -14.248290306716411 1 0 0
427 1 -1.6334152055642106 6.580701132515319 -14.825507261434815 0 0 0
940 1 -7.3251273947413 7.734948316514742 -14.43268384905796 0 -1 1
1024 2 -6.041256773653037 11.815095606986022 -15.35454783434521 1 0 1
29 1 0.5101262939345673 11.650440926228505 -15.568099202691954 0 0 0
22 1 10.121551039622032 12.181340303244326 -14.392313092020482 -1 0 0
421 1 16.91779871075958 13.518890952738468 -12.830862287809424 0 0 0
819 1 -15.332669612156655 13.096404951750062 -14.443469116644579 1 -1 1
414 2 -14.619566311525501 16.93767721154476 -17.121394847801955 0 0 0
942 1 -1.9471647183174363 16.755283047056 -13.597667944251246 -1 -1 1
509 1 7.5432336363404655 14.721829333254622 -16.105506904586996 -1 0 0
1098 1 -12.472093655966724 18.571415418074608 -13.299757586395362 0 -1 1
824 1 3.1778927638742234 19.89471159449586 -13.28879555619261 0 -1 1
710 1 -4.311869655627267 -19.794812347466145 -12.399948744960994 0 1 1
25 1 -3.250050662725345 18.93711251082741 -14.074021359197591 0 0 -1
392 1 5.551009914817879 -19.38544860453617 -14.358407091388637 0 1 0
727 1 18.51025829291528 -18.680293950523275 -12.448000995658093 0 0 1
951 1 2.380839092879058 -17.432793412767424 -14.375562383332248 0 0 1
780 1 5.227941918727439 -17.842364295172334 -12.638024018307252 0 1 0
735 2 13.07621457039393 -17.52759464019993 -13.915060407684162 0 0 1
953 1 -7.09178105517892 -13.453400828727636 -12.290632170445258 -1 -1 1
629 2 4.702708038479201 -15.994450903573565 -12.8627276797064 0 1 0
714 1 12.694248743250393 -12.252080948384934 -14.06972313282944 0 1 1
1008 1 -6.979373355182996 -12.425414569293569 -13.06565988635786 0 0 0
320 1 -13.748405968003356 -11.616004559259817 -13.22235381428707 0 0 0
571 1 10.056432079206935 -11.934416533480823 -13.454872622449844 0 0 0
280 1 -12.344502000773371 -9.127851332026669 -13.897944588046045 0 0 0
215 1 -11.683776040243046 -3.920123542602095 -13.684785930563006 0 0 0
861 1 -5.335448744978083 -6.723884872999535 -13.326308266711704 0 1 0
743 2 4.679161864696486 -4.144879715905027 -12.690625842151121 -1 0 1
252 1 2.8633975552909736 -1.2280949007052202 -14.352500315791605 0 0 0
201 1 -16.82722664037869 0.524886734748066 -15.092354134369167 1 0 0
77 1 -16.30670958270746 -1.9905532253581568 -11.79814896351614 1 -1 0
636 1 -18.003323420527487 1.6334508334831217 -11.154821555401123 1 1 0
964 1 -12.849069050396011 1.714802311798007 -10.492321910792572 2 0 1
863 1 15.642188965623678 4.455134864113257 -11.352787489916079 0 -1 0
270 1 12.01065546429585 5.287090213397726 -15.30193432890199 0 0 -1
789 1 13.987657358674996 6.825188334544111 -12.61145058925739 -1 0 0
649 1 -15.749822656220978 6.9341674223520435 -13.844353054746822 1 -1 0
569 1 -14.555544103275686 7.533640421336212 -14.486373298607928 1 -1 0
1001 1 6.443799400010633 7.482243114638799 -14.39095434611814 -1 0 0
1075 1 1.0928340666244813 9.985004877090905 -11.53985949021268 0 0 1
52 1 3.717307674292049 11.53649869538324 -13.646383793034959 0 0 0
361 1 14.011328752727875 11.689554574323852 -13.412880701719432 0 0 0
1015 1 16.90724738054297 9.47096757169781 -13.82842175897113 0 0 1
453 1 7.038528342284934 8.796740364401519 -14.22372770678102 0 0 0
965 1 9.360334201002676 12.27435374234025 -12.857054630876469 0 0 1
369 1 1.7803092731586798 14.276718233075258 -12.003800216704475 0 -1 1
873 1 6.437463138164673 14.069479031996936 -15.937164645336233 0 -1 1
804 1 -18.296845435084254 14.79787972568458 -16.145442788911513 1 0 1
554 1 -17.39306357850797 14.805549621926579 -13.417936265949763 1 0 0
343 2 -15.7845412716103 -19.831206284448427 -13.979040919680731 0 1 0
245 1 18.592339238534684 18.113062844682936 -14.237104758202664 0 -1 0
39 1 -4.099294462233328 -19.8026383711383 -14.31138185479472 0 1 0
1099 1 7.969232810164435 -19.563033637083176 -12.243726979658327 0 0 1
971 1 19.186871476621896 -19.029045313014542 -11.408562120227774 -1 1 1
726 1 2.423450358602328 -12.786531099455527 -12.462793062095837 0 0 0
6 1 0.8863206457925814 -12.886312512162437 -12.448654890603827 -1 0 -1
240 1 2.9186136351689 -8.281280985673014 -12.12874982654407 0 1 0
834 1 7.856195855123842 -11.462575611475627 -12.328286842209117 0 0 1
528 1 17.062888498653138 -11.857637409319624 -11.580013849678961 0 0 1
555 1 -9.26116079240512 -5.111891883860851 -10.391703788950437 1 1 0
811 1 -4.579074897509896 -5.4778082569392605 -12.391488961208175 -1 0 1
892 1 -7.643937009559262 -0.11442435042578697 -11.042477683144675 1 1 1
147 2 -2.2075203180177883 -1.8196604046487737 -12.585965779308001 0 0 0
915 1 15.363417932445623 -0.11344949471492637 -11.131742629623165 0 0 0
1137 1 -18.220907588831956 4.305350100990956 -11.945387265313313 0 0 1
1113 1 -9.833584831084217 3.1260879909454733 -12.306441320080586 0 0 1
1145 1 15.573317224850001 5.091902116080799 -10.313014387634702 0 0 1
907 1 15.457360731785466 3.265495495400961 -10.421839741617648 0 0 1
1074 1 0.8252515590951742 3.9290185753906797 -12.442015996032177 0 0 1
68 1 1.7092159844149624 4.6784564955631875 -12.757173224856835 0 0 0
607 1 -4.592697593611976 5.234632156066215 -14.746674120552385 -1 -1 0
411 1 8.04261714024759 6.7585468637323185 -13.173746771049444 -1 -1 1
849 1 9.00610574246725 7.881004553846205 -12.70085506313964 -1 0 1
28 1 19.77107357021781 6.721706796193139 -11.67286512487404 0 0 0
947 1 -17.700384404776894 9.548499903814857 -12.195221105754893 -1 -1 1
491 2 19.037276601321757 11.66505852848424 -12.67519372428241 0 -1 0
803 1 -17.36095305217177 11.204961242316648 -11.307420814204516 1 0 1
323 1 17.759690902534036 14.576389172505955 -12.363505091812272 0 -1 0
760 1 -14.116863986102075 14.851165345660126 -11.567090258006656 0 0 1
1017 2 10.30285312596263 14.78083319399693 -12.901665025264 0 0 1
358 1 -7.4782230159486245 15.59757239277819 -12.643100130912934 0 0 0
300 2 4.144779174455931 16.097658986606824 -10.836788422746459 0 0 0
241 1 -15.012319049659798 16.239726937792984 -13.110341694978747 0 0 0
862 1 -6.336188564346989 16.591147268819974 -12.944379229543749 0 -1 0
364 1 -2.3385354861119056 16.153916823173535 -12.075057663024173 0 -1 0
573 2 -17.77548002532959 19.481281760995497 -10.991132538765406 0 -1 0
425 1 2.4893083054050136 18.271311448894508 -12.09953336961974 1 -1 0
121 1 3.503701434247826 -19.849685952281053 -10.773492726906069 0 0 0
133 1 -0.9576049095259599 -18.199906197679994 -9.859349946951738 -1 0 0
246 1 11.803480758188865 -17.54263067034787 -9.263533454865279 0 0 0
996 1 -2.6341102686336195 -16.96682544936944 -11.608749882048015 -1 0 1
933 1 18.071637088729656 -15.088543191562321 -10.706941022853071 -1 1 0
122 1 -14.944093880775492 -13.565015002385007 -10.467373659303554 0 0 0
219 2 -11.289309816918905 -13.098284746781635 -11.152572978155094 0 0 -1
74 1 -6.868446898326835 -10.517812264865995 -9.579723683625256 0 0 0
685 1 15.261924095464153 -10.589415283939498 -11.031672177330341 0 0 0
281 1 -17.51959144865702 -8.822279943211521 -11.113604888058843 1 0 0
619 1 13.276153647465469 -11.88156683524707 -12.107698436302472 -1 0 0
212 1 19.832557651545773 -9.104470939030694 -11.35364060758741 0 0 0
1069 1 -18.034860856629308 -11.152324573009771 -10.615527446548489 0 1 1
934 1 -12.77570280018881 -9.4213077351056 -11.39951060859449 1 1 0
676 1 -1.1808528994008407 -9.101704277701023 -10.17717900221 0 0 1
827 1 2.800508464705014 -8.255813236730484 -9.10141158674943 0 0 0
486 1 7.776111133464871 -6.653343180523436 -10.083979006676143 -1 0 0
90 1 7.802223916219629 -4.409190414915269 -12.180237986640899 1 0 0
591 1 -13.914089048779074 -5.758467742977369 -11.00142569532965 0 0 1
1062 1 -10.777456994423076 -3.037943015500296 -9.406842579694157 1 0 1
1088 1 -6.955935653988009 -2.9123172482510338 -11.93958590086406 1 0 1
420 1 -12.950842079075676 4.318736911089771 -11.630223769631893 1 1 0
1122 1 -3.06131265522021 3.426496272469946 -11.58869233299031 0 0 1
515 1 15.056160798097672 2.3430067079414147 -10.71501203908545 0 0 1
541 1 -10.597759604009898 6.92037637548363 -9.619033038112006 0 0 0
5 1 -12.574652445198492 6.362351299205515 -10.397236303263632 1 0 -1
412 2 -2.395966100331392 6.574061990898046 -8.728690823333679 0 -1 0
305 1 2.236800665717407 6.3037874327787105 -11.416261756126053 0 0 0
987 1 12.600140987253244 7.488783259018675 -12.723388157095796 0 1 1
1141 1 15.010490098584562 7.129946147820711 -11.357808170166146 -1 0 1
422 1 -17.90418586481594 7.933575490019863 -10.055961969265297 1 0 0
1012 1 -8.839595083771426 8.630846072995285 -10.634942615609962 1 -1 1
249 1 4.050010500519534 7.497432585470051 -11.290090153756047 0 0 0
313 1 8.186626448780508 7.3504783115397805 -12.012194992996186 -1 1 0
998 1 -9.446903150731801 9.007701035774815 -11.485317632044291 1 -1 1
847 1 -17.016402833851135 9.774371425003116 -11.417000142846833 0 0 1
647 1 3.7608557500168196 12.10974270408459 -12.638095834649784 0 -1 0
1101 1 -2.0913234755878864 14.089661600945911 -10.414704463036578 0 0 0
203 1 14.332892632762874 14.059635872556996 -11.453000468171536 0 0 0
196 1 -19.781128951458353 18.888064090578023 -9.60357745723752 1 0 0
949 1 -5.294909453882482 19.673456543484477 -12.058587406191684 0 -1 1
756 1 3.957770961220856 17.36948119193503 -13.007335723159093 0 0 0
16 1 19.914328697129978 -19.959284660203224 -11.335964839262191 0 0 0
485 2 -4.282713780447126 -18.80238088845642 -7.428618812716778 0 1 0
1020 2 -15.954057806224343 -18.700896977827547 -10.649330558345058 0 1 1
1000 1 -19.071417733909325 -19.18621849109506 -9.67708186621309 1 0 0
497 1 -18.874623498522332 -14.182503360281377 -7.985194105362745 1 0 0
817 1 -9.82696136614219 -13.74740262418354 -9.77162033933002 -1 0 1
822 1 -8.963084314570013 -14.768015420396136 -9.315505927897911 0 0 0
1030 1 14.262143799925424 -14.463293869988732 -9.136791484896978 -1 1 0
545 1 -15.619490904323799 -14.753121017532878 -8.472049575785931 0 0 1
269 2 8.871086809354255 -13.84099310874767 -9.877788174571263 -1 1 -1
1078 1 13.742231501886957 -13.72435655621325 -12.65172932328839 -1 1 1
954 2 -18.90731686412011 -12.30891611952568 -8.48772363706291 1 0 0
911 1 -5.7521459186289405 -11.70156274584687 -10.148995314532938 0 0 1
340 2 13.9783607745588 -10.12311239980779 -9.742121549544242 0 0 0
1019 1 19.0142439900128 -10.502963803990461 -10.53427054431029 0 0 0
479 1 -4.773440135369019 -7.351710305713154 -7.936146381954973 0 0 0
332 1 10.281610219274528 -7.133535857621354 -8.423384968223203 -1 0 0
773 1 16.277311747873807 -7.721676461164751 -11.714641787318378 0 0 1
597 1 4.997367576057317 -4.949445122207219 -11.053702554792249 0 1 0
1073 1 -3.513804919777867 -2.585548746576032 -9.461273366055226 0 0 0
293 1 -6.181952398646844 -0.10637089033193997 -9.086349596808775 1 0 0
1051 1 -4.709956468871088 3.793024520862526 -10.191920597822444 0 0 1
308 1 -15.896839478989307 3.6646500733522713 -9.301303646817798 0 0 1
666 1 -9.088617200092093 7.274192609982695 -9.09856686934212 0 0 1
360 1 -5.588957648117133 5.865929302349267 -7.934124091175941 0 1 0
168 1 9.713043001685527 8.355614904792496 -9.028477204596959 0 -1 0
275 1 11.39902716057347 9.578823832661355 -9.993027154748484 0 0 -1
127 1 13.599811527472898 9.952504867937568 -7.954815503938955 -1 0 -1
1055 2 13.816221150593124 9.254199570679466 -9.6343821135684 0 -1 1
267 2 5.933416538175772 10.12850958345882 -10.873156501956423 0 0 -1
195 1 0.7388696974677232 13.453939065707349 -9.535641825338955 0 0 0
111 1 17.781740865761943 13.552888223893008 -9.050306267730987 0 0 0
574 1 -14.841364128516327 14.927554053467121 -8.37844619497311 0 0 0
128 1 11.234407625603716 15.265222598341827 -8.96788792266155 -1 -1 -1
139 2 -18.512594620807594 16.480397975912307 -9.432644104820605 1 0 0
764 1 0.9526403069519807 18.26910799757794 -8.247368481982026 0 0 1
86 2 14.943963605188367 19.404563624296117 -7.117732711065938 -1 0 0
119 1 -12.055628152168794 18.190449889168786 -10.070319894314304 1 -1 0
226 1 -16.607493043308036 -15.003285526433752 -6.229761520209172 0 0 0
865 1 2.7696896867419065 -14.10991849700047 -7.293702090670162 0 0 1
141 1 11.375836421287518 -14.295591039447629 -7.17020641709324 0 1 0
204 1 12.96778141684497 -14.431854983049963 -7.310225680571253 0 1 0
675 1 12.829177151352553 -12.960693093866585 -6.510564280152811 0 0 1
941 1 -0.8230763906639847 -9.267378063389536 -6.7078656239930305 -1 0 0
937 1 3.304053657772199 -10.442389055616857 -7.6281925517554034 0 1 1
926 1 -0.2229498421935672 -10.483613998643701 -8.265011223188061 0 0 1
21 1 5.689505327868579 -8.692465677789546 -7.250587183512263 -1 0 0
733 1 -15.017345095443439 -6.373028444905046 -8.713622407210535 0 0 1
627 1 0.2811792052399119 -9.317542076929936 -8.912981994285383 -1 1 1
763 1 -7.9384191980183285 -6.199310853499888 -7.6376468807365026 0 0 0
57 1 -14.443047270027087 -4.223585471955499 -9.27102742603058 1 1 0
968 1 -13.17355257051221 -4.204597349706637 -8.336195044733616 1 0 0
345 1 -9.057339573233756 -4.481364245859114 -7.793292576347627 1 0 0
446 2 0.1535666154766514 -7.614291132760471 -8.443502286503064 0 0 0
257 2 4.263022503042412 -4.929650580408471 -7.594735760643311 0 0 0
950 1 -15.79133732320214 0.19393949726439158 -7.809788188193675 0 0 1
728 1 -0.042708238802693144 -3.5991997541686604 -6.408442509545478 1 0 1
199 1 12.252025525267571 -2.592070629143225 -9.125817756400279 0 1 0
67 1 -2.90947931465146 -1.3159597318314025 -8.470134130079568 0 -1 0
535 2 17.410288205452453 0.06590380291413392 -7.428231575703562 0 1 0
734 1 -4.678894664012297 -0.06600070359668239 -8.71078383882748 1 0 1
304 1 -5.810698982161171 0.7223999952955994 -7.023447820120225 0 1 0
752 2 10.939865986033064 4.220384896899153 -10.092164653026654 0 0 0
959 1 -0.4631966212732044 7.6895724283208065 -7.905206885373901 0 0 1
1083 1 -2.575436716923496 5.342557376052507 -7.16685926220585 0 -1 0
1072 1 3.7694327903771745 6.436155568100141 -9.477344038866038 0 0 1
465 1 7.6145505626788115 4.976858081171432 -9.5120541494158 -1 0 0
476 1 12.859052741566657 5.692122565956097 -8.327132265491583 0 0 0
825 1 17.488321105123873 8.149932125214388 -8.747419662725227 -1 0 0
1046 1 18.66690393907066 8.66696173430463 -7.628323741500947 0 0 0
1079 1 -7.50142369251055 7.86652111722849 -6.986137424317686 0 0 1
660 2 -3.071974742464424 10.347045083279887 -7.2761453917096555 0 0 0
143 1 15.438946905837097 11.693510035535326 -6.177436413192864 -1 -1 0
272 1 5.858723742799757 12.01043685109293 -9.197005387941731 0 0 0
868 1 7.09452845517557 13.484914420894372 -6.879187105365014 0 -1 1
92 2 10.034077591482285 12.313022757190137 -7.993651728797576 0 0 0
431 1 9.731702183745952 18.584767266299885 -5.765704513879325 -1 0 0
975 1 12.972716473858565 16.72147456452417 -8.27071186297148 -1 0 0
1139 1 2.059574039499322 16.867067882304315 -8.55601454216542 0 0 1
35 1 -9.970512992438236 -18.942491820063655 -6.62042370348592 0 1 0
788 1 11.91335717546755 -19.995286299515488 -4.392153457212394 0 1 0
770 1 -14.311593389525285 -18.21677045396552 -5.628019567617717 1 0 0
525 2 4.9693826636700065 -16.273810387053082 -4.976305463132322 0 0 0
860 1 9.240470026954167 -17.50406412685867 -3.146349392717312 0 1 0
350 2 -9.401570596761442 -17.25004153678064 -5.878636811649686 0 0 -1
672 1 -15.622533736804462 -12.799976624091665 -6.742063486694296 0 0 0
613 1 0.6186619348815718 -13.131211021533893 -7.851417919497725 -1 1 0
724 1 -19.699775824320607 -10.950026323126814 -6.348580432659009 1 1 1
404 1 4.313040110802508 -11.970203889566058 -5.953452783577443 0 0 -1
808 1 -5.206085876520581 -6.813086884310606 -6.556411909813586 0 0 0
71 1 -12.688436865014236 -7.97557182243115 -6.381098968973575 0 1 0
641 1 6.150540906215969 -6.371848047686985 -5.284323402236823 -1 1 0
729 1 -11.575035099142031 -6.361668833452322 -6.999053764949865 0 0 0
718 1 2.004991868135133 -7.5867097328046516 -7.161990074037629 0 0 0
711 1 -5.291773210804062 -6.137035859241679 -5.7564808070924816 1 1 0
194 1 -12.562151994759489 -3.1340088547440725 -6.877039003951426 1 1 0
1093 2 15.175605541863233 -4.291190221753969 -7.757198978670298 -1 1 1
367 1 10.21922613666199 -2.43162604961022 -6.369558821854427 0 0 0
850 1 17.76838202247391 -2.0424334652728025 -9.32269801176257 -1 0 0
958 1 -6.906965925531518 0.5451455918214816 -6.554021136783837 0 0 0
793 1 12.821434139386131 0.8111704744970425 -7.457966531837198 -1 1 0
909 1 19.159039289049495 0.0013406378781688991 -7.3548083614613 -1 0 1
389 2 -15.013178545033275 2.0034298011868357 -8.060005311569862 1 0 0
157 1 16.9906417078896 2.5738662778762067 -5.694646665643183 0 0 0
182 2 -3.280169862599292 3.747946492832854 -8.727038385797627 0 -1 0
315 1 9.549767298864573 2.469615623780007 -5.589070912077815 -1 1 0
186 2 10.551162222053406 8.469836615340265 -7.00021088764358 0 0 0
138 1 14.142291381973179 6.065022822172322 -6.874938329421876 -1 0 -1
592 1 -8.932435070054014 7.200568987973001 -7.110352023963747 0 0 0
374 1 -2.0929686769564197 8.645380389251947 -7.889795134454081 0 0 0
442 1 5.310380569728327 7.169709185891458 -6.351545039845718 0 -1 0
376 1 -15.530076159253275 8.31940403393031 -4.922742674714395 0 0 -1
800 1 -7.544671221772994 11.05120069665875 -5.951458309346918 1 1 0
639 1 6.580758091109248 9.128489409139219 -4.838133455604605 0 1 0
750 1 -1.5219793397626953 12.250196423152143 -7.978610971300278 0 0 0
981 1 5.080016525361535 14.24303972041936 -6.28416711479055 -1 -1 1
928 1 -6.941698760612629 13.35731964220209 -4.151086610927792 1 -1 1
296 1 14.008424202977293 13.270720473838084 -5.581726710542846 0 -1 0
36 1 13.914549036470953 15.031285437379346 -6.328118753756079 -1 0 -1
920 2 -4.512145084942988 14.014245600330293 -6.333561081132334 0 -1 0
1119 1 -19.364644420480193 16.28191021537706 -7.278906095278934 0 -1 0
259 1 -7.664633100800591 -18.38001700838584 -4.46115289808538 0 1 0
1086 1 6.537430710078833 19.39431595627559 -4.753551080204971 0 -1 1
163 1 14.330934445321121 -19.30321083111848 -5.79282192894038 0 -1 0
483 1 19.77610837142481 -16.43968071019657 -6.364660104391583 0 0 0
512 1 -7.69219232062304 -17.85214318040744 -3.3968631864814998 0 0 0
247 1 0.7653033788009465 -16.34103018215327 -4.300420339203642 0 0 0
464 1 18.71679741355584 -15.745471434862987 -4.773754944772392 0 0 1
842 2 -7.942081865353557 -13.714958312566228 -4.998910205900146 0 1 1
845 1 -9.539207265383379 -14.386954226601842 -4.4288639721580925 0 0 1
637 1 -9.750283864341617 -11.90770783750173 -2.787239440908754 1 1 1
523 1 6.134994810245494 -9.363067807928804 -6.368859394712439 0 0 0
418 2 -7.343398692553469 -7.824618223200996 -4.2324549600850485 0 1 0
1095 2 -4.869172526524231 -7.870132129011967 -4.741309252350745 0 0 1
106 1 14.17589353187495 -7.51196379373496 -2.8964246465603245 0 0 0
1146 2 2.2188461296132855 -4.910545290834875 -6.175647430037681 0 0 0
1112 1 13.545746571174094 -6.9221749540743405 -5.100975000369861 -1 0 1
575 1 -1.42512337372043 -4.444873599630346 -5.6581149722602175 0 0 0
922 1 12.2797193628353 -3.775940086328626 -4.879915294564057 0 0 1
906 1 15.255666251640005 -5.446316440580328 -6.201267302990377 -1 -1 1
395 1 -16.406326428224087 0.7880629179001348 -4.497277267113149 0 1 0
266 1 -8.835513651964753 -4.417013593570884 -4.601608161120228 1 0 0
1117 1 -7.867115007044163 -4.08417483633733 -5.149337248430337 0 0 1