ITEM: TIMESTEP
0
ITEM: NUMBER OF ATOMS
20
ITEM: BOX BOUNDS pp pp pp
-1.0000000000000000e+01 3.0000000000000000e+01
-1.0000000000000000e+01 3.0000000000000000e+01
-1.0000000000000000e+01 3.0000000000000000e+01
ITEM: ATOMS id x y z
1 0.5 0.5 1
2 1.5 1.5 0
3 2.5 2.5 1
4 3.5 3.5 1
5 4.5 4.5 1
6 5.5 5.5 1
7 6.5 6.5 1
8 7.5 7.5 1
9 8.5 8.5 1
10 9.5 9.5 1
11 10.5 10.5 1
12 11.5 11.5 1
13 12.5 12.5 1
14 13.5 13.5 1
15 14.5 14.5 1
16 15.5 15.5 1
17 16.5 16.5 1
18 17.5 17.5 1
19 18.5 18.5 0
20 19.5 19.5 1
ITEM: TIMESTEP
10
ITEM: NUMBER OF ATOMS
20
ITEM: BOX BOUNDS pp pp pp
-1.0000000000000000e+01 3.0000000000000000e+01
-1.0000000000000000e+01 3.0000000000000000e+01
-1.0000000000000000e+01 3.0000000000000000e+01
ITEM: ATOMS id x y z
1 1.26788 1.26788 0.704991
2 2.03075 2.03075 0.725327
3 2.84097 2.84097 0.795867
4 3.7207 3.7207 0.874663
5 4.61405 4.61405 0.935096
6 5.55945 5.55945 0.973748
7 6.52423 6.52423 0.992046
8 7.509 7.509 0.998448
9 8.50001 8.50001 0.999824
10 9.49825 9.49825 0.999989
11 10.5018 10.5018 0.999989
12 11.5 11.5 0.999824
13 12.491 12.491 0.998448
14 13.4758 13.4758 0.992046
15 14.4405 14.4405 0.973748
16 15.386 15.386 0.935096
17 16.2793 16.2793 0.874663
18 17.159 17.159 0.795867
19 17.9692 17.9692 0.725327
20 18.7321 18.7321 0.704991
ITEM: TIMESTEP
20
ITEM: NUMBER OF ATOMS
20
ITEM: BOX BOUNDS pp pp pp
-1.0000000000000000e+01 3.0000000000000000e+01
-1.0000000000000000e+01 3.0000000000000000e+01
-1.0000000000000000e+01 3.0000000000000000e+01
ITEM: ATOMS id x y z
1 2.09336 2.09336 0.750052
2 2.82352 2.82352 0.796795
3 3.59493 3.59493 0.839873
4 4.3814 4.3814 0.876908
5 5.20567 5.20567 0.908899
6 6.03608 6.03608 0.934696
7 6.89967 6.89967 0.955383
8 7.77866 7.77866 0.97087
9 8.65581 8.65581 0.980672
10 9.55281 9.55281 0.985854
11 10.4472 10.4472 0.985854
12 11.3442 11.3442 0.980672
13 12.2213 12.2213 0.97087
14 13.1003 13.1003 0.955383
15 13.9639 13.9639 0.934696
16 14.7943 14.7943 0.908899
17 15.6186 15.6186 0.876908
18 16.4051 16.4051 0.839873
19 17.1765 17.1765 0.796795
20 17.9066 17.9066 0.750052
ITEM: TIMESTEP
30
ITEM: NUMBER OF ATOMS
20
ITEM: BOX BOUNDS pp pp pp
-1.0000000000000000e+01 3.0000000000000000e+01
-1.0000000000000000e+01 3.0000000000000000e+01
-1.0000000000000000e+01 3.0000000000000000e+01
ITEM: ATOMS id x y z
1 2.9176 2.9176 0.800202
2 3.61907 3.61907 0.832216
3 4.35918 4.35918 0.860831
4 5.09247 5.09247 0.884676
5 5.81849 5.81849 0.905055
6 6.5777 6.5777 0.922516
7 7.34318 7.34318 0.936475
8 8.07774 8.07774 0.946735
9 8.85156 8.85156 0.953838
10 9.63125 9.63125 0.957456
11 10.3688 10.3688 0.957456
12 11.1484 11.1484 0.953838
13 11.9223 11.9223 0.946735
14 12.6568 12.6568 0.936475
15 13.4223 13.4223 0.922516
16 14.1815 14.1815 0.905055
17 14.9075 14.9075 0.884676
18 15.6408 15.6408 0.860831
19 16.3809 16.3809 0.832216
20 17.0824 17.0824 0.800202
ITEM: TIMESTEP
40
ITEM: NUMBER OF ATOMS
20
ITEM: BOX BOUNDS pp pp pp
-1.0000000000000000e+01 3.0000000000000000e+01
-1.0000000000000000e+01 3.0000000000000000e+01
-1.0000000000000000e+01 3.0000000000000000e+01
ITEM: ATOMS id x y z
1 3.22072 3.22072 0.816686
2 3.9353 3.9353 0.844267
3 4.64062 4.64062 0.867591
4 5.3511 5.3511 0.88751
5 6.06508 6.06508 0.904549
6 6.78024 6.78024 0.918698
7 7.49376 7.49376 0.930067
8 8.207 8.207 0.938595
9 8.92647 8.92647 0.944572
10 9.6428 9.6428 0.947466
11 10.3572 10.3572 0.947466
12 11.0735 11.0735 0.944572
13 11.793 11.793 0.938595
14 12.5062 12.5062 0.930067
15 13.2198 13.2198 0.918698
16 13.9349 13.9349 0.904549
17 14.6489 14.6489 0.88751
18 15.3594 15.3594 0.867591
19 16.0647 16.0647 0.844267
20 16.7793 16.7793 0.816686
ITEM: TIMESTEP
50
ITEM: NUMBER OF ATOMS
20
ITEM: BOX BOUNDS pp pp pp
-1.0000000000000000e+01 3.0000000000000000e+01
-1.0000000000000000e+01 3.0000000000000000e+01
-1.0000000000000000e+01 3.0000000000000000e+01
ITEM: ATOMS id x y z
1 3.27465 3.27465 0.818934
2 3.98089 3.98089 0.845591
3 4.68852 4.68852 0.868495
4 5.39714 5.39714 0.888014
5 6.10387 6.10387 0.904503
6 6.8121 6.8121 0.918259
7 7.52072 7.52072 0.929269
8 8.22899 8.22899 0.937627
9 8.93727 8.93727 0.943224
10 9.64525 9.64525 0.946084
11 10.3548 10.3548 0.946084
12 11.0627 11.0627 0.943224
13 11.771 11.771 0.937627
14 12.4793 12.4793 0.929269
15 13.1879 13.1879 0.918259
16 13.8961 13.8961 0.904503
17 14.6029 14.6029 0.888014
18 15.3115 15.3115 0.868495
19 16.0191 16.0191 0.845591
20 16.7254 16.7254 0.818934
ITEM: TIMESTEP
60
ITEM: NUMBER OF ATOMS
20
ITEM: BOX BOUNDS pp pp pp
-1.0000000000000000e+01 3.0000000000000000e+01
-1.0000000000000000e+01 3.0000000000000000e+01
-1.0000000000000000e+01 3.0000000000000000e+01
ITEM: ATOMS id x y z
1 3.28146 3.28146 0.819197
2 3.98833 3.98833 0.845799
3 4.69531 4.69531 0.868615
4 5.40245 5.40245 0.88805
5 6.10956 6.10956 0.90451
6 6.81679 6.81679 0.918207
7 7.5241 7.5241 0.929168
8 8.23147 8.23147 0.93749
9 8.93886 8.93886 0.943061
10 9.64626 9.64626 0.945903
11 10.3537 10.3537 0.945903
12 11.0611 11.0611 0.943061
13 11.7685 11.7685 0.93749
14 12.4759 12.4759 0.929168
15 13.1832 13.1832 0.918207
16 13.8904 13.8904 0.90451
17 14.5976 14.5976 0.88805
18 15.3047 15.3047 0.868615
19 16.0117 16.0117 0.845799
20 16.7185 16.7185 0.819197
ITEM: TIMESTEP
70
ITEM: NUMBER OF ATOMS
20
ITEM: BOX BOUNDS pp pp pp
-1.0000000000000000e+01 3.0000000000000000e+01
-1.0000000000000000e+01 3.0000000000000000e+01
-1.0000000000000000e+01 3.0000000000000000e+01
ITEM: ATOMS id x y z
1 3.28323 3.28323 0.819264
2 3.99009 3.99009 0.845846
3 4.69702 4.69702 0.868645
4 5.404 5.404 0.888065
5 6.11103 6.11103 0.904511
6 6.81808 6.81808 0.918195
7 7.52515 7.52515 0.929145
8 8.23223 8.23223 0.937455
9 8.93935 8.93935 0.943019
10 9.64646 9.64646 0.945856
11 10.3535 10.3535 0.945856
12 11.0607 11.0607 0.943019
13 11.7678 11.7678 0.937455
14 12.4749 12.4749 0.929145
15 13.1819 13.1819 0.918195
16 13.889 13.889 0.904511
17 14.596 14.596 0.888065
18 15.303 15.303 0.868645
19 16.0099 16.0099 0.845846
20 16.7168 16.7168 0.819264
ITEM: TIMESTEP
80
ITEM: NUMBER OF ATOMS
20
ITEM: BOX BOUNDS pp pp pp
-1.0000000000000000e+01 3.0000000000000000e+01
-1.0000000000000000e+01 3.0000000000000000e+01
-1.0000000000000000e+01 3.0000000000000000e+01
ITEM: ATOMS id x y z
1 3.28329 3.28329 0.819266
2 3.99015 3.99015 0.845848
3 4.69707 4.69707 0.868646
4 5.40404 5.40404 0.888065
5 6.11105 6.11105 0.904511
6 6.81809 6.81809 0.918194
7 7.52516 7.52516 0.929144
8 8.23224 8.23224 0.937454
9 8.93934 8.93934 0.943018
10 9.64645 9.64645 0.945855
11 10.3536 10.3536 0.945855
12 11.0607 11.0607 0.943018
13 11.7678 11.7678 0.937454
14 12.4748 12.4748 0.929144
15 13.1819 13.1819 0.918194
16 13.8889 13.8889 0.904511
17 14.596 14.596 0.888065
18 15.3029 15.3029 0.868646
19 16.0099 16.0099 0.845848
20 16.7167 16.7167 0.819266
ITEM: TIMESTEP
90
ITEM: NUMBER OF ATOMS
20
ITEM: BOX BOUNDS pp pp pp
-1.0000000000000000e+01 3.0000000000000000e+01
-1.0000000000000000e+01 3.0000000000000000e+01
-1.0000000000000000e+01 3.0000000000000000e+01
ITEM: ATOMS id x y z
1 3.28329 3.28329 0.819266
2 3.99015 3.99015 0.845848
3 4.69707 4.69707 0.868646
4 5.40405 5.40405 0.888065
5 6.11106 6.11106 0.904511
6 6.8181 6.8181 0.918194
7 7.52516 7.52516 0.929144
8 8.23225 8.23225 0.937453
9 8.93934 8.93934 0.943018
10 9.64645 9.64645 0.945855
11 10.3536 10.3536 0.945855
12 11.0607 11.0607 0.943018
13 11.7678 11.7678 0.937453
14 12.4748 12.4748 0.929144
15 13.1819 13.1819 0.918194
16 13.8889 13.8889 0.904511
17 14.596 14.596 0.888065
18 15.3029 15.3029 0.868646
19 16.0098 16.0098 0.845848
20 16.7167 16.7167 0.819266
ITEM: TIMESTEP
100
ITEM: NUMBER OF ATOMS
20
ITEM: BOX BOUNDS pp pp pp
-1.0000000000000000e+01 3.0000000000000000e+01
-1.0000000000000000e+01 3.0000000000000000e+01
-1.0000000000000000e+01 3.0000000000000000e+01
ITEM: ATOMS id x y z
1 3.28329 3.28329 0.819266
2 3.99015 3.99015 0.845848
3 4.69707 4.69707 0.868646
4 5.40405 5.40405 0.888065
5 6.11106 6.11106 0.904511
6 6.8181 6.8181 0.918194
7 7.52516 7.52516 0.929144
8 8.23225 8.23225 0.937453
9 8.93934 8.93934 0.943018
10 9.64645 9.64645 0.945855
11 10.3536 10.3536 0.945855
12 11.0607 11.0607 0.943018
13 11.7678 11.7678 0.937453
14 12.4748 12.4748 0.929144
15 13.1819 13.1819 0.918194
16 13.8889 13.8889 0.904511
17 14.596 14.596 0.888065
18 15.3029 15.3029 0.868646
19 16.0098 16.0098 0.845848
20 16.7167 16.7167 0.819266
ITEM: TIMESTEP
109
ITEM: NUMBER OF ATOMS
20
ITEM: BOX BOUNDS pp pp pp
-1.0000000000000000e+01 3.0000000000000000e+01
-1.0000000000000000e+01 3.0000000000000000e+01
-1.0000000000000000e+01 3.0000000000000000e+01
ITEM: ATOMS id x y z
1 3.28329 3.28329 0.819266
2 3.99015 3.99015 0.845848
3 4.69707 4.69707 0.868646
4 5.40405 5.40405 0.888065
5 6.11106 6.11106 0.904511
6 6.8181 6.8181 0.918194
7 7.52516 7.52516 0.929144
8 8.23225 8.23225 0.937453
9 8.93934 8.93934 0.943018
10 9.64645 9.64645 0.945855
11 10.3536 10.3536 0.945855
12 11.0607 11.0607 0.943018
13 11.7678 11.7678 0.937453
14 12.4748 12.4748 0.929144
15 13.1819 13.1819 0.918194
16 13.8889 13.8889 0.904511
17 14.596 14.596 0.888065
18 15.3029 15.3029 0.868646
19 16.0098 16.0098 0.845848
20 16.7167 16.7167 0.819266
