ITEM: TIMESTEP
200
ITEM: NUMBER OF ATOMS
20
ITEM: BOX BOUNDS pp pp pp
-1.0000000000000000e+01 3.0000000000000000e+01
-1.0000000000000000e+01 3.0000000000000000e+01
-1.0000000000000000e+01 3.0000000000000000e+01
ITEM: ATOMS id x y z
1 3.34423 3.07658 0.857211
2 3.76072 3.64168 1.18901
3 4.37742 3.97054 0.957261
4 5.56999 5.76447 1.1631
5 6.17714 6.59824 1.00182
6 6.87463 7.02768 0.494123
7 7.86049 7.28089 0.929054
8 7.99974 8.02775 0.756553
9 8.90093 8.82648 0.940339
10 9.56856 9.4659 0.711538
11 10.4702 9.91862 1.20353
12 11.0255 11.323 1.04966
13 11.8889 11.2923 1.0678
14 12.1954 12.2816 0.987485
15 13.599 13.13 0.948219
16 14.2352 13.8112 0.995913
17 14.6268 14.834 0.929238
18 15.3128 15.088 1.21655
19 16.1981 15.4936 0.737416
20 16.6711 16.4593 0.711821
ITEM: TIMESTEP
300
ITEM: NUMBER OF ATOMS
20
ITEM: BOX BOUNDS pp pp pp
-1.0000000000000000e+01 3.0000000000000000e+01
-1.0000000000000000e+01 3.0000000000000000e+01
-1.0000000000000000e+01 3.0000000000000000e+01
ITEM: ATOMS id x y z
1 3.32271 3.26005 0.7095
2 3.65024 3.4671 1.22909
3 4.31268 4.36486 1.10062
4 5.46965 5.59098 0.982227
5 6.1078 6.72535 0.486548
6 6.61404 6.94076 0.0293138
7 7.84458 6.88159 1.49857
8 8.26458 7.82411 0.546076
9 8.63239 8.5314 1.16845
10 9.44014 9.74372 0.882335
11 9.95383 9.90382 1.43868
12 11.3055 11.562 1.06738
13 11.5534 11.5544 1.79297
14 12.4055 12.1664 0.72624
15 13.789 13.1592 0.735325
16 14.2022 13.6884 1.05138
17 14.9298 15.0384 0.843913
18 14.9684 15.2083 1.45459
19 15.9413 15.8341 0.350936
20 16.8166 15.7054 0.868519
ITEM: TIMESTEP
400
ITEM: NUMBER OF ATOMS
20
ITEM: BOX BOUNDS pp pp pp
-1.0000000000000000e+01 3.0000000000000000e+01
-1.0000000000000000e+01 3.0000000000000000e+01
-1.0000000000000000e+01 3.0000000000000000e+01
ITEM: ATOMS id x y z
1 3.53338 3.53985 0.791381
2 3.78952 3.39042 1.50812
3 4.47032 4.53007 1.29799
4 5.42782 5.95532 0.632696
5 6.35845 6.6901 0.615999
6 6.99377 6.9615 -0.112473
7 7.89761 6.74604 1.255
8 7.94586 7.48605 0.48337
9 9.04417 8.29351 1.22847
10 9.2766 9.72636 0.457724
11 10.0263 9.99223 1.51395
12 11.6687 11.2424 0.955339
13 11.1971 11.3538 1.59761
14 12.519 12.4134 0.738833
15 13.7344 13.175 1.35166
16 13.7781 13.4282 1.1314
17 15.0944 15.0633 1.54827
18 14.4164 15.5843 1.95072
19 15.5618 16.0101 -0.129647
20 16.7308 15.5576 1.11051
ITEM: TIMESTEP
500
ITEM: NUMBER OF ATOMS
20
ITEM: BOX BOUNDS pp pp pp
-1.0000000000000000e+01 3.0000000000000000e+01
-1.0000000000000000e+01 3.0000000000000000e+01
-1.0000000000000000e+01 3.0000000000000000e+01
ITEM: ATOMS id x y z
1 3.51772 3.6732 0.878822
2 3.9034 3.30929 1.52638
3 4.6878 4.60056 1.32848
4 5.50207 5.79811 0.599892
5 6.11119 6.87508 1.10485
6 7.15618 7.13942 -0.726841
7 7.73917 6.67965 1.28653
8 8.10124 7.46154 0.758333
9 8.40877 8.37774 1.02871
10 9.48739 9.69814 0.595293
11 10.0043 10.3154 1.43928
12 11.6891 11.068 1.21441
13 10.9986 11.751 1.58462
14 12.3855 12.7295 0.901729
15 14.1316 13.4896 1.49736
16 13.6928 14.0668 0.922303
17 14.6297 14.8232 1.42284
18 13.8541 16.2727 1.68525
19 15.762 16.52 -0.280385
20 16.5056 15.0719 0.87971
ITEM: TIMESTEP
600
ITEM: NUMBER OF ATOMS
20
ITEM: BOX BOUNDS pp pp pp
-1.0000000000000000e+01 3.0000000000000000e+01
-1.0000000000000000e+01 3.0000000000000000e+01
-1.0000000000000000e+01 3.0000000000000000e+01
ITEM: ATOMS id x y z
1 3.71544 3.90933 0.550234
2 4.62202 3.01409 1.59793
3 4.66044 4.22106 1.5691
4 5.4402 5.5138 0.288077
5 5.93917 6.97889 1.04832
6 7.35106 7.47602 -0.0155545
7 7.21463 6.39038 1.11899
8 8.53129 7.5059 0.762515
9 8.43165 8.51335 0.983638
10 9.54399 9.41103 1.32831
11 10.3837 10.1477 1.25229
12 11.2512 10.7723 1.62109
13 11.0282 11.3294 1.36372
14 12.5064 12.6975 0.771969
15 14.1517 13.1657 1.48583
16 13.529 13.9666 0.859151
17 14.5286 14.7781 0.881489
18 13.7475 15.7754 1.70983
19 16.1085 16.3295 0.125938
20 16.6808 14.7 0.710103
ITEM: TIMESTEP
700
ITEM: NUMBER OF ATOMS
20
ITEM: BOX BOUNDS pp pp pp
-1.0000000000000000e+01 3.0000000000000000e+01
-1.0000000000000000e+01 3.0000000000000000e+01
-1.0000000000000000e+01 3.0000000000000000e+01
ITEM: ATOMS id x y z
1 3.69578 4.22822 0.246638
2 5.0313 3.40014 1.72827
3 5.40426 4.43181 1.82464
4 5.81848 5.30394 0.147996
5 6.23547 7.05713 1.06733
6 7.35221 7.428 0.258994
7 7.16664 6.49768 1.19567
8 8.89216 7.45253 1.05134
9 8.67676 8.5854 0.830665
10 9.50919 9.17317 0.770821
11 10.0314 10.1668 1.39354
12 10.9365 10.4543 1.15089
13 10.8302 11.3535 1.39279
14 12.6624 12.3738 1.17367
15 13.8224 12.9219 1.52134
16 13.2864 14.1419 0.985087
17 14.9743 14.7088 0.837645
18 13.6337 15.7023 1.61675
19 15.9641 16.2477 0.40873
20 16.809 14.4008 1.02216
ITEM: TIMESTEP
800
ITEM: NUMBER OF ATOMS
20
ITEM: BOX BOUNDS pp pp pp
-1.0000000000000000e+01 3.0000000000000000e+01
-1.0000000000000000e+01 3.0000000000000000e+01
-1.0000000000000000e+01 3.0000000000000000e+01
ITEM: ATOMS id x y z
1 3.65727 4.44014 -0.26699
2 4.87063 3.43713 1.52915
3 5.10699 4.19106 2.20293
4 6.22499 4.76906 0.221785
5 6.18625 7.2385 1.39363
6 7.44553 7.00549 0.268497
7 7.43261 6.54103 0.982136
8 8.63276 7.58094 0.957961
9 8.49583 8.47581 0.742602
10 9.74586 9.14095 0.220808
11 10.0156 10.3709 1.20278
12 11.1957 10.7056 0.827524
13 10.7319 11.5585 1.67875
14 12.5163 12.0713 1.06245
15 13.8166 13.0602 1.51999
16 12.8363 14.2147 0.879177
17 14.9063 14.4764 0.886594
18 13.5117 15.8215 0.901785
19 16.0738 16.6817 0.671758
20 17.0096 14.8026 0.787754
ITEM: TIMESTEP
900
ITEM: NUMBER OF ATOMS
20
ITEM: BOX BOUNDS pp pp pp
-1.0000000000000000e+01 3.0000000000000000e+01
-1.0000000000000000e+01 3.0000000000000000e+01
-1.0000000000000000e+01 3.0000000000000000e+01
ITEM: ATOMS id x y z
1 3.41581 4.26321 0.537834
2 5.01357 3.32132 1.28404
3 4.90486 3.81776 2.59455
4 5.96683 4.53841 0.602731
5 6.23554 7.54607 1.2423
6 7.53093 7.41637 0.627524
7 7.67988 6.61157 0.869998
8 9.16787 7.4194 1.1264
9 8.50333 8.14263 0.714046
10 9.59215 9.45993 -0.182812
11 9.96151 10.0883 1.21771
12 11.2556 10.6568 1.15419
13 10.1824 11.5267 1.65313
14 12.6463 11.4476 0.835027
15 13.8962 13.3719 0.890241
16 12.522 13.748 1.16676
17 14.5268 14.3809 0.600483
18 13.8219 15.3112 0.827119
19 16.1642 17.3735 0.321728
20 17.3857 14.6189 1.20706
ITEM: TIMESTEP
1000
ITEM: NUMBER OF ATOMS
20
ITEM: BOX BOUNDS pp pp pp
-1.0000000000000000e+01 3.0000000000000000e+01
-1.0000000000000000e+01 3.0000000000000000e+01
-1.0000000000000000e+01 3.0000000000000000e+01
ITEM: ATOMS id x y z
1 3.26754 3.7856 0.98334
2 4.80124 3.29446 1.53801
3 5.07916 3.50499 2.18555
4 5.80406 4.86523 1.02891
5 6.36571 7.51532 1.16092
6 7.24578 6.96502 0.915464
7 7.62824 6.5348 0.716646
8 9.95973 7.27752 1.02041
9 8.70086 8.90033 0.53255
10 9.44271 9.5905 0.161815
11 10.0532 9.76546 1.32895
12 11.3408 10.6043 1.16969
13 10.2723 11.3848 2.00486
14 12.5615 11.7192 1.06488
15 14.21 13.1551 0.777586
16 12.5688 13.4129 1.45829
17 14.2147 14.4707 0.44914
18 14.0734 14.81 0.552318
19 15.7429 16.7847 0.420357
20 17.024 14.8037 1.06723
ITEM: TIMESTEP
1100
ITEM: NUMBER OF ATOMS
20
ITEM: BOX BOUNDS pp pp pp
-1.0000000000000000e+01 3.0000000000000000e+01
-1.0000000000000000e+01 3.0000000000000000e+01
-1.0000000000000000e+01 3.0000000000000000e+01
ITEM: ATOMS id x y z
1 3.00484 4.00514 0.816587
4 5.99183 4.76322 1.19577
6 7.518 7.004 1.24293
7 7.325 6.58337 0.28146
5 6.22331 7.82075 0.860793
8 9.66753 7.06587 1.41127
9 9.03595 8.72432 0.735316
10 9.41174 9.99372 0.210634
11 9.73386 9.78089 1.53622
12 11.041 10.5172 1.09661
14 12.489 11.8218 1.1087
15 14.0939 13.1347 0.839044
17 14.6639 14.432 0.249394
18 14.3913 15.3539 0.580857
20 17.0149 14.506 0.857728
19 15.803 16.5196 0.347655
2 4.60497 3.90965 1.39953
3 5.1782 3.41289 1.54956
13 9.38001 11.401 1.54416
16 12.693 13.8582 1.66099
ITEM: TIMESTEP
1200
ITEM: NUMBER OF ATOMS
20
ITEM: BOX BOUNDS pp pp pp
-1.0000000000000000e+01 3.0000000000000000e+01
-1.0000000000000000e+01 3.0000000000000000e+01
-1.0000000000000000e+01 3.0000000000000000e+01
ITEM: ATOMS id x y z
1 2.87508 3.95519 1.26322
4 5.94104 4.85076 1.5035
6 7.73056 7.05854 1.26668
7 7.24926 6.91335 0.355381
5 6.05807 7.41967 1.02633
8 9.41156 7.18614 1.44012
9 8.85473 8.57301 0.378138
10 9.31368 10.1486 0.496165
11 9.81839 9.78787 1.20088
12 11.2002 10.6942 1.22532
14 12.1369 11.6969 1.55842
15 14.2045 12.5954 0.848936
17 14.465 13.89 0.319973
18 13.9772 15.7085 0.688872
20 16.8712 14.7934 0.795327
19 16.1119 16.7018 0.728668
2 4.82952 4.35798 1.43717
3 4.98551 3.31294 1.28091
13 9.64964 11.7358 1.6665
16 13.1102 13.5033 1.53411
ITEM: TIMESTEP
1300
ITEM: NUMBER OF ATOMS
20
ITEM: BOX BOUNDS pp pp pp
-1.0000000000000000e+01 3.0000000000000000e+01
-1.0000000000000000e+01 3.0000000000000000e+01
-1.0000000000000000e+01 3.0000000000000000e+01
ITEM: ATOMS id x y z
1 2.84121 4.38486 1.28344
4 5.89655 5.44244 1.47793
6 8.23613 7.13635 1.29594
7 7.66938 7.04674 0.864877
5 6.07917 6.68837 0.910349
8 9.04639 7.24883 1.21525
9 8.75201 8.11133 0.55519
10 9.24342 10.0405 0.453676
11 9.96473 9.62948 0.397025
12 11.3868 11.0603 1.0808
14 12.352 11.6689 1.21733
15 14.0028 12.9092 0.931248
17 14.4217 14.1131 0.416708
18 14.0568 15.9691 1.01754
20 17.0983 14.7129 0.961316
19 16.2782 16.4598 1.03818
2 4.81061 4.36496 1.47244
3 5.18209 3.5683 1.34393
13 9.87099 12.2251 1.87222
16 13.3875 13.5436 1.71645
ITEM: TIMESTEP
1400
ITEM: NUMBER OF ATOMS
20
ITEM: BOX BOUNDS pp pp pp
-1.0000000000000000e+01 3.0000000000000000e+01
-1.0000000000000000e+01 3.0000000000000000e+01
-1.0000000000000000e+01 3.0000000000000000e+01
ITEM: ATOMS id x y z
1 2.53629 4.18851 1.04421
4 5.81873 5.75065 1.91854
6 8.21739 7.20211 1.65662
7 7.154 7.05364 0.808562
5 6.52826 6.96375 0.746466
8 8.86255 7.12238 0.825164
9 8.58943 8.59615 0.393305
10 8.74171 10.1048 0.00122971
11 10.0372 9.43366 0.309798
12 10.8074 11.271 1.09884
14 12.5433 11.621 1.40764
15 14.0708 13.1025 1.45977
17 14.7088 14.0652 0.771333
18 14.3337 15.5396 1.26517
20 17.3289 14.6961 1.00074
19 16.3249 16.4368 1.26871
2 5.16816 4.14041 1.38953
3 4.76952 3.73012 1.7705
13 9.94237 12.6735 1.84181
16 13.5906 13.2603 1.80503
ITEM: TIMESTEP
1500
ITEM: NUMBER OF ATOMS
20
ITEM: BOX BOUNDS pp pp pp
-1.0000000000000000e+01 3.0000000000000000e+01
-1.0000000000000000e+01 3.0000000000000000e+01
-1.0000000000000000e+01 3.0000000000000000e+01
ITEM: ATOMS id x y z
1 2.85586 4.30621 1.22496
4 5.82561 6.0347 1.61908
6 8.4678 7.63735 1.5585
7 6.51135 7.20744 0.814306
5 5.52572 7.09222 0.496971
8 8.57999 6.46647 0.967712
9 8.35966 8.80625 0.560999
10 8.55007 9.66341 -0.14063
11 10.2316 9.91091 0.325158
12 10.6059 11.1284 0.541828
14 12.2206 11.6134 1.31677
15 14.2746 13.0597 1.55758
17 14.781 14.2411 1.27422
18 14.1166 16.0254 1.28908
20 17.2766 14.8675 1.00279
19 16.123 16.3301 0.74718
2 4.83484 3.84924 1.39985
3 4.57128 4.07049 1.59099
13 9.77168 12.4898 1.5353
16 13.7163 13.2533 1.52073
ITEM: TIMESTEP
1600
ITEM: NUMBER OF ATOMS
20
ITEM: BOX BOUNDS pp pp pp
-1.0000000000000000e+01 3.0000000000000000e+01
-1.0000000000000000e+01 3.0000000000000000e+01
-1.0000000000000000e+01 3.0000000000000000e+01
ITEM: ATOMS id x y z
1 2.72674 4.69872 0.846315
4 6.16876 5.88688 1.62312
6 8.54899 7.42222 1.34378
7 6.73761 7.3579 0.70293
5 5.78221 7.31931 0.843252
8 8.60048 6.96358 1.03345
9 8.59449 8.41462 0.374266
10 9.04251 9.6837 -0.385986
11 10.5419 10.0795 0.427039
12 10.5509 11.5986 0.750208
14 12.1246 11.7805 2.19395
15 14.1988 13.2764 1.32025
17 14.8734 13.9999 1.11902
18 14.4373 16.6571 1.56497
20 17.1916 14.7962 0.594914
19 16.6347 15.8605 0.52177
2 4.79218 3.76301 1.36221
3 4.34473 4.00565 1.49277
13 10.0657 12.2771 1.608
16 13.8853 13.5173 2.09963
ITEM: TIMESTEP
1700
ITEM: NUMBER OF ATOMS
20
ITEM: BOX BOUNDS pp pp pp
-1.0000000000000000e+01 3.0000000000000000e+01
-1.0000000000000000e+01 3.0000000000000000e+01
-1.0000000000000000e+01 3.0000000000000000e+01
ITEM: ATOMS id x y z
1 2.57295 5.04441 0.547745
4 6.06443 6.07478 1.60053
6 8.55881 7.15171 1.72474
7 6.92517 7.97023 0.578004
5 5.96388 7.68665 1.12668
8 8.91196 7.44093 1.15693
9 8.59433 8.87152 0.733135
10 9.0269 9.86578 -0.487828
11 10.2029 10.3916 0.300542
12 10.37 11.7918 0.649885
14 12.3226 11.484 2.26211
15 14.14 13.4654 0.912094
17 14.962 14.1332 1.52388
18 14.8295 16.2284 1.818
20 16.8908 15.2517 0.76405
19 16.3771 15.6612 0.237189
2 4.80128 3.95834 1.62631
3 4.2493 4.16839 1.4101
13 9.99779 12.1568 2.09222
16 13.6869 13.2799 2.01389
ITEM: TIMESTEP
1800
ITEM: NUMBER OF ATOMS
20
ITEM: BOX BOUNDS pp pp pp
-1.0000000000000000e+01 3.0000000000000000e+01
-1.0000000000000000e+01 3.0000000000000000e+01
-1.0000000000000000e+01 3.0000000000000000e+01
ITEM: ATOMS id x y z
1 2.95317 5.07153 0.00859613
4 5.86535 6.26321 1.48198
6 9.00255 7.05414 2.13354
7 6.9524 7.82584 0.75481
5 6.13508 7.54832 1.30372
8 8.82267 7.92252 1.1555
9 8.43172 9.1553 0.73576
10 9.29413 9.53596 -0.686261
11 10.6232 10.2221 0.461067
12 10.3168 12.24 0.844519
14 12.0751 11.9501 2.53295
15 13.9907 13.3217 1.49622
17 14.7287 13.9132 1.3437
18 15.3689 16.0797 1.70611
20 17.2219 15.302 0.629652
19 16.0191 15.2958 0.546555
2 4.60463 3.64326 1.41816
3 4.28086 4.46201 1.43965
13 10.0205 12.4683 1.95084
16 13.5159 13.082 1.89494
ITEM: TIMESTEP
1900
ITEM: NUMBER OF ATOMS
20
ITEM: BOX BOUNDS pp pp pp
-1.0000000000000000e+01 3.0000000000000000e+01
-1.0000000000000000e+01 3.0000000000000000e+01
-1.0000000000000000e+01 3.0000000000000000e+01
ITEM: ATOMS id x y z
1 3.04576 5.05097 -0.306601
4 6.15509 6.49001 1.74864
6 8.89494 7.14413 2.52612
7 7.15733 7.62914 0.977056
5 6.13756 7.29818 0.843317
8 8.66184 7.80922 1.19178
9 8.5303 9.31987 0.96137
10 9.40838 9.38426 -0.774109
11 10.3126 10.0382 0.441393
12 10.3356 12.3381 0.421065
14 11.6741 12.0712 2.58355
15 13.6896 13.0508 1.75156
17 15.1816 14.1113 0.788381
18 14.9359 16.8117 1.86033
20 17.5785 15.6238 0.813328
19 16.0458 15.1694 0.797397
2 4.57559 3.74381 1.31859
3 4.59634 4.85593 1.2723
13 9.9885 12.6213 1.44479
16 13.8251 12.8961 1.90614
ITEM: TIMESTEP
2000
ITEM: NUMBER OF ATOMS
20
ITEM: BOX BOUNDS pp pp pp
-1.0000000000000000e+01 3.0000000000000000e+01
-1.0000000000000000e+01 3.0000000000000000e+01
-1.0000000000000000e+01 3.0000000000000000e+01
ITEM: ATOMS id x y z
1 2.89844 4.58335 -0.817001
4 6.47274 6.68314 1.58776
6 8.91419 7.26932 2.23631
7 6.97575 7.36072 1.05811
5 6.84032 7.26049 1.18125
8 8.42787 7.2273 1.32142
9 8.54935 9.14866 1.45531
10 9.81204 9.61074 -0.968464
11 10.5285 9.74126 0.324101
12 10.3939 11.8983 0.541884
14 11.8012 12.4518 2.5487
15 13.5997 13.2245 1.78108
17 14.8897 14.5152 0.14634
18 14.7944 16.5032 1.71517
20 17.5239 15.5751 1.27881
19 15.9798 15.181 0.263831
2 4.39334 3.60793 1.02071
3 4.49667 5.36604 1.17334
13 10.1347 12.4636 1.52606
16 13.6125 13.1499 1.33495
ITEM: TIMESTEP
2100
ITEM: NUMBER OF ATOMS
20
ITEM: BOX BOUNDS pp pp pp
-1.0000000000000000e+01 3.0000000000000000e+01
-1.0000000000000000e+01 3.0000000000000000e+01
-1.0000000000000000e+01 3.0000000000000000e+01
ITEM: ATOMS id x y z
1 2.85056 4.47304 -0.935009
10 10.0584 9.71548 -0.534635
2 4.21157 3.39911 1.15556
3 4.53489 5.5204 1.16255
7 6.89392 7.17848 1.15949
5 7.04185 7.52213 1.68395
8 8.09378 6.70047 1.2663
11 10.4388 10.2562 0.539508
12 10.0006 11.4344 0.461768
16 13.6434 13.5797 1.83416
17 14.5926 14.3835 0.316538
19 16.4722 15.376 0.275484
20 17.7 15.8733 0.896343
4 5.93446 6.35259 1.37912
6 8.85335 7.61699 1.74389
9 8.75764 8.93579 1.20257
13 9.99831 12.3236 1.48306
14 12.1164 12.9002 2.29321
15 13.1661 13.3118 1.86674
18 14.9052 16.2263 1.59567
ITEM: TIMESTEP
2200
ITEM: NUMBER OF ATOMS
20
ITEM: BOX BOUNDS pp pp pp
-1.0000000000000000e+01 3.0000000000000000e+01
-1.0000000000000000e+01 3.0000000000000000e+01
-1.0000000000000000e+01 3.0000000000000000e+01
ITEM: ATOMS id x y z
1 2.52751 4.44536 -0.567082
10 9.84683 9.99883 -0.652216
2 4.20636 3.6329 1.14953
3 4.58658 5.21831 1.42985
7 7.22928 7.34346 1.07891
5 7.13123 7.8485 1.45347
8 7.852 6.61112 0.950542
11 10.4996 10.2602 0.571724
12 10.0321 11.7027 0.3662
16 13.6395 14.0963 1.95777
17 14.2759 14.1542 0.281585
19 16.3733 15.32 -0.0613043
20 17.3728 15.7817 0.63182
4 5.68323 6.42062 1.22303
6 8.99167 7.91551 1.50795
9 8.82683 8.83221 0.719617
13 10.2832 12.2343 1.4182
14 11.9996 13.1746 2.30868
15 13.5089 13.059 2.29612
18 15.3734 16.2188 1.95289
ITEM: TIMESTEP
2300
ITEM: NUMBER OF ATOMS
20
ITEM: BOX BOUNDS pp pp pp
-1.0000000000000000e+01 3.0000000000000000e+01
-1.0000000000000000e+01 3.0000000000000000e+01
-1.0000000000000000e+01 3.0000000000000000e+01
ITEM: ATOMS id x y z
1 2.79332 4.17785 -0.926453
10 9.87017 9.68629 -0.625697
2 4.41413 3.60839 0.98844
3 4.55437 5.53053 1.10918
7 7.45623 7.52693 0.904471
5 6.74662 8.22861 1.70914
8 7.70691 6.41041 0.611877
11 10.257 9.72727 0.348095
12 9.90572 11.5705 0.0088836
16 13.6132 14.2693 1.92247
17 14.3007 13.827 0.542518
19 16.0166 15.5547 0.068907
20 17.3392 15.6886 0.889344
4 5.6527 6.427 1.36895
6 8.36246 7.97698 0.965587
9 9.21259 9.02604 0.565943
13 10.3135 12.1869 1.39068
14 11.7162 13.2409 2.39641
15 13.4531 12.7241 2.68317
18 14.7449 16.4105 1.81839
ITEM: TIMESTEP
2400
ITEM: NUMBER OF ATOMS
20
ITEM: BOX BOUNDS pp pp pp
-1.0000000000000000e+01 3.0000000000000000e+01
-1.0000000000000000e+01 3.0000000000000000e+01
-1.0000000000000000e+01 3.0000000000000000e+01
ITEM: ATOMS id x y z
1 3.21789 3.83437 -0.671985
10 9.45139 9.89172 -0.369085
2 4.53305 3.86598 0.773641
3 4.45853 5.29935 1.17076
7 6.77228 7.59248 0.356618
5 6.81937 7.88834 1.31592
8 7.43017 6.82357 0.202068
11 9.92527 10.0572 0.602138
12 9.88862 11.3244 -0.0668855
16 13.9583 14.1981 1.8576
17 13.8639 13.9721 0.643491
19 16.3002 15.5969 0.237884
20 17.0373 15.6104 0.856337
4 5.6779 6.22407 1.43269
6 8.34935 8.42494 1.51683
9 8.84684 9.15182 0.339277
13 10.2949 12.0263 1.41154
14 11.6186 13.2325 2.45303
15 13.0536 12.8936 2.7275
18 15.036 16.3044 1.64113
ITEM: TIMESTEP
2500
ITEM: NUMBER OF ATOMS
20
ITEM: BOX BOUNDS pp pp pp
-1.0000000000000000e+01 3.0000000000000000e+01
-1.0000000000000000e+01 3.0000000000000000e+01
-1.0000000000000000e+01 3.0000000000000000e+01
ITEM: ATOMS id x y z
1 3.30535 3.42273 -0.134759
10 8.62127 9.54872 0.182089
2 5.27548 4.43242 0.981358
3 4.70771 5.76342 1.52993
7 7.02449 7.64951 0.512532
5 6.67512 8.03538 0.978004
8 7.44229 7.62632 0.470566
11 10.2485 10.2685 0.928291
12 9.66095 11.2273 0.449653
16 14.0045 14.2368 1.89164
17 14.0052 14.2231 1.07897
19 16.5356 15.4608 -0.0385506
20 17.1927 15.7269 0.394044
4 5.4699 6.45474 1.81495
6 7.98289 8.35195 1.09061
9 8.89829 8.99552 0.190933
13 10.3882 11.4775 1.49269
14 12.1536 12.9676 2.56115
15 13.0515 13.3813 2.33226
18 14.8231 16.2196 1.4488
ITEM: TIMESTEP
2600
ITEM: NUMBER OF ATOMS
20
ITEM: BOX BOUNDS pp pp pp
-1.0000000000000000e+01 3.0000000000000000e+01
-1.0000000000000000e+01 3.0000000000000000e+01
-1.0000000000000000e+01 3.0000000000000000e+01
ITEM: ATOMS id x y z
1 3.29487 3.10095 -0.233664
10 8.68597 10.029 0.082386
2 5.04961 4.39579 0.926794
3 4.77096 6.11781 2.02628
7 7.08955 7.11084 0.873576
5 6.7724 7.54749 0.511646
8 7.62908 8.05158 0.413248
11 10.5549 10.5265 1.31282
12 9.5863 11.5734 0.774859
16 14.0724 14.3676 2.41086
17 14.1103 14.3292 0.695251
19 16.473 15.8153 -0.287939
20 16.9239 15.8252 0.474494
4 5.55391 6.25464 2.34621
6 7.92132 8.1222 1.00054
9 8.80758 8.85765 -0.087142
13 10.1567 11.5979 1.31691
14 12.2403 13.0528 2.86671
15 13.3521 13.9946 2.70523
18 15.1081 15.9721 1.61372
ITEM: TIMESTEP
2700
ITEM: NUMBER OF ATOMS
20
ITEM: BOX BOUNDS pp pp pp
-1.0000000000000000e+01 3.0000000000000000e+01
-1.0000000000000000e+01 3.0000000000000000e+01
-1.0000000000000000e+01 3.0000000000000000e+01
ITEM: ATOMS id x y z
1 3.60472 3.11136 -0.367106
10 8.8256 10.1999 0.0256809
2 5.06309 4.27057 0.737363
3 5.01127 6.42981 1.64916
7 6.88348 6.6933 0.826596
5 6.74543 7.67682 0.624377
8 7.57614 8.03979 0.582017
11 10.4788 10.4718 1.35785
12 9.58828 11.6313 1.15393
16 14.1409 14.2751 2.10959
17 14.2064 14.697 0.784932
19 16.4621 15.7751 -0.332864
20 16.6138 15.9577 0.474141
4 4.95913 6.36404 2.01231
6 7.49635 8.30554 1.42247
9 8.86635 8.59363 0.0718138
13 10.4415 11.8961 1.31868
14 11.9817 12.7892 2.31368
15 13.0911 13.5052 2.82634
18 15.0753 15.8664 1.75292
ITEM: TIMESTEP
2800
ITEM: NUMBER OF ATOMS
20
ITEM: BOX BOUNDS pp pp pp
-1.0000000000000000e+01 3.0000000000000000e+01
-1.0000000000000000e+01 3.0000000000000000e+01
-1.0000000000000000e+01 3.0000000000000000e+01
ITEM: ATOMS id x y z
1 4.0451 3.28184 -0.357109
10 8.91422 10.1633 -0.129243
2 4.79283 4.53789 1.1752
3 4.8678 6.26191 1.4418
7 7.08367 6.94292 1.08727
5 6.80139 7.35568 0.950548
8 7.31265 7.88623 1.06577
11 10.2574 10.4038 1.18773
12 9.85887 11.7259 0.923992
16 14.0399 13.6544 1.52904
17 14.5497 14.8595 1.04989
19 16.0875 16.2717 -0.145121
20 16.406 16.386 0.366953
4 4.928 6.58501 1.99264
6 7.60259 8.44049 1.65312
9 8.26609 8.8209 -0.178094
13 10.5221 12.1598 1.42423
14 11.9152 12.9977 2.31692
15 12.6388 13.6102 2.57215
18 15.1148 16.1398 1.78075
ITEM: TIMESTEP
2900
ITEM: NUMBER OF ATOMS
20
ITEM: BOX BOUNDS pp pp pp
-1.0000000000000000e+01 3.0000000000000000e+01
-1.0000000000000000e+01 3.0000000000000000e+01
-1.0000000000000000e+01 3.0000000000000000e+01
ITEM: ATOMS id x y z
1 4.21021 3.57361 -0.593066
10 9.36595 10.0719 -0.209236
2 4.75846 4.8244 1.07371
3 4.76144 5.93077 1.34471
7 7.10136 6.77287 1.22135
5 6.7409 7.27747 1.23967
8 7.32586 7.93026 1.17858
11 10.0382 10.2383 0.974397
12 9.89341 11.3239 1.02875
16 13.5423 13.5018 1.17797
17 14.823 14.8228 0.84406
19 16.5765 16.3302 0.252863
20 16.0716 16.2843 -0.117363
4 4.58037 6.9162 1.45803
6 7.26973 8.35458 1.69904
9 7.7644 9.31951 -0.529005
13 10.6285 12.1699 1.55343
14 12.0707 12.8563 2.07327
15 12.4315 13.7284 2.46843
18 15.8739 15.6552 1.61758
ITEM: TIMESTEP
3000
ITEM: NUMBER OF ATOMS
20
ITEM: BOX BOUNDS pp pp pp
-1.0000000000000000e+01 3.0000000000000000e+01
-1.0000000000000000e+01 3.0000000000000000e+01
-1.0000000000000000e+01 3.0000000000000000e+01
ITEM: ATOMS id x y z
1 3.79086 3.52062 -0.104725
10 9.48355 9.92309 0.177171
2 4.66489 4.52933 0.856411
3 4.8238 5.75876 1.1452
7 6.49031 6.55257 1.29872
5 7.06386 7.58301 1.61977
8 7.83789 8.13039 1.03952
11 9.67565 11.0534 0.816984
12 10.1737 11.9241 1.08492
16 13.8077 13.388 1.49042
17 14.8462 14.858 1.1889
19 16.8203 16.5098 -0.110734
20 15.102 15.9241 -0.17464
4 5.06521 6.17153 1.65657
6 6.72025 8.4308 1.49264
9 7.72581 9.67156 -0.274522
13 10.7807 11.8694 1.6959
14 11.8368 12.6814 1.70107
15 12.1839 13.9296 2.42215
18 15.8005 15.3772 1.40032
ITEM: TIMESTEP
3100
ITEM: NUMBER OF ATOMS
20
ITEM: BOX BOUNDS pp pp pp
-1.0000000000000000e+01 3.0000000000000000e+01
-1.0000000000000000e+01 3.0000000000000000e+01
-1.0000000000000000e+01 3.0000000000000000e+01
ITEM: ATOMS id x y z
1 3.53821 3.4356 -0.18911
9 7.7945 9.29075 -0.456059
20 15.1077 16.2138 -0.423474
19 16.782 16.4878 -0.391076
2 4.79934 4.79396 1.01493
3 4.8757 5.66586 1.1628
7 6.214 6.90552 1.62496
8 7.70173 8.38985 0.535653
10 9.20875 9.95521 0.633858
11 9.44553 10.843 1.1191
12 10.5386 12.1676 1.12811
17 14.5984 15.4062 0.9523
18 15.8847 15.5506 1.31788
4 5.50298 6.52536 1.58448
5 6.61038 7.33786 1.64515
6 6.2493 7.91104 1.6806
13 10.4744 12.0269 1.68568
14 11.9149 12.3041 1.2938
15 12.0428 13.9137 2.38373
16 14.313 13.439 1.43307
ITEM: TIMESTEP
3200
ITEM: NUMBER OF ATOMS
20
ITEM: BOX BOUNDS pp pp pp
-1.0000000000000000e+01 3.0000000000000000e+01
-1.0000000000000000e+01 3.0000000000000000e+01
-1.0000000000000000e+01 3.0000000000000000e+01
ITEM: ATOMS id x y z
1 3.25948 3.93797 0.371048
9 7.80513 9.54391 -0.206601
20 15.3534 16.467 -0.410195
19 16.8972 16.4412 -0.304376
2 4.97418 5.25318 1.00373
3 4.39959 5.70028 1.68867
7 5.98797 7.21413 1.94998
8 7.56464 8.58245 0.666365
10 9.22912 9.80679 1.14584
11 9.37613 11.0114 1.06928
12 10.2748 11.9991 1.08774
17 14.8403 15.4359 0.74546
18 15.922 15.4526 1.39671
4 5.58383 6.83664 1.43162
5 6.46673 7.09917 2.2195
6 6.19507 7.83872 1.79967
13 10.4522 11.9517 1.77988
14 11.475 12.6776 1.68292
15 12.4153 13.9129 2.66048
16 14.2812 13.7388 1.73121
ITEM: TIMESTEP
3300
ITEM: NUMBER OF ATOMS
20
ITEM: BOX BOUNDS pp pp pp
-1.0000000000000000e+01 3.0000000000000000e+01
-1.0000000000000000e+01 3.0000000000000000e+01
-1.0000000000000000e+01 3.0000000000000000e+01
ITEM: ATOMS id x y z
1 2.92459 4.12933 0.578767
9 7.78939 10.0174 -0.318866
20 15.4614 16.3969 -0.421663
19 16.9299 15.8842 0.131847
2 4.89886 5.35379 1.08119
3 4.43635 6.20404 1.7226
7 6.09118 7.91993 1.65861
8 7.75339 8.53502 0.338343
10 9.39068 9.53245 0.771651
11 9.16792 11.4435 0.656544
12 10.4975 11.6579 1.20858
17 15.1056 15.321 1.25716
18 15.9993 15.5551 1.73603
4 5.45479 6.85671 1.63269
5 6.53351 7.51495 2.15441
6 6.48168 7.48546 1.97114
13 10.3377 11.953 1.83992
14 11.136 12.8886 1.78245
15 12.3991 14.1025 2.93874
16 14.615 14.3732 1.81961
ITEM: TIMESTEP
3400
ITEM: NUMBER OF ATOMS
20
ITEM: BOX BOUNDS pp pp pp
-1.0000000000000000e+01 3.0000000000000000e+01
-1.0000000000000000e+01 3.0000000000000000e+01
-1.0000000000000000e+01 3.0000000000000000e+01
ITEM: ATOMS id x y z
1 3.13134 3.81284 0.436273
9 7.8749 10.2849 -0.374836
20 15.7966 15.8412 -0.369937
19 16.8745 15.847 0.132755
2 4.49831 5.35534 1.0626
3 4.49279 6.79032 1.86636
7 6.20159 7.92637 1.69116
8 7.80016 8.74342 0.622205
10 9.44432 9.78758 0.639059
11 9.85729 12.0497 0.799469
12 10.1352 12.016 1.16497
17 15.1151 15.5081 1.28764
18 16.0176 15.754 1.80412
4 5.07983 6.70048 1.60265
5 6.74318 7.57036 1.87672
6 6.56406 7.63053 1.58489
13 10.1581 12.1286 2.00927
14 11.7343 13.0217 1.74422
15 12.5946 14.3128 2.16542
16 14.4428 14.5848 1.82567
ITEM: TIMESTEP
3500
ITEM: NUMBER OF ATOMS
20
ITEM: BOX BOUNDS pp pp pp
-1.0000000000000000e+01 3.0000000000000000e+01
-1.0000000000000000e+01 3.0000000000000000e+01
-1.0000000000000000e+01 3.0000000000000000e+01
ITEM: ATOMS id x y z
1 3.11443 4.11776 1.16144
9 8.05329 10.1573 -0.267215
20 15.5971 16.0252 -0.449561
19 16.9877 15.9004 0.400071
2 4.24918 5.14908 1.34984
3 4.19003 6.93447 1.55377
7 6.6529 7.65056 2.18127
8 8.03744 8.99096 0.59675
10 9.57884 9.88721 -0.0742371
11 9.72718 11.6369 0.755304
12 10.3343 12.1071 1.06062
17 15.0905 16.1467 1.43343
18 15.9409 15.2491 1.75515
4 5.25095 6.38083 1.77552
5 6.4911 7.92109 1.72364
6 6.78918 8.18236 1.29292
13 10.5482 12.0733 2.04169
14 11.4752 13.4743 2.07595
15 12.1977 14.3597 1.67698
16 14.3661 14.6234 1.71832
ITEM: TIMESTEP
3600
ITEM: NUMBER OF ATOMS
20
ITEM: BOX BOUNDS pp pp pp
-1.0000000000000000e+01 3.0000000000000000e+01
-1.0000000000000000e+01 3.0000000000000000e+01
-1.0000000000000000e+01 3.0000000000000000e+01
ITEM: ATOMS id x y z
1 2.87586 4.2789 1.56226
9 8.09393 10.4154 -0.372231
20 15.7056 15.9741 -0.539944
19 17.1996 15.8147 0.137994
2 3.70061 4.64779 1.5982
3 4.0094 6.9817 1.31153
7 6.88381 7.88025 2.04032
8 7.35024 8.47599 0.997298
10 9.40216 10.3687 -0.168756
11 10.0927 11.2835 0.584491
12 10.7552 12.3343 1.13632
17 14.6843 16.2437 2.05002
18 16.0162 14.7043 1.02969
4 5.36608 6.47345 1.79983
5 6.3213 7.87552 1.83054
6 6.71197 8.76036 1.43879
13 10.9728 11.6737 2.04433
14 10.8072 13.2367 1.85865
15 12.4006 14.5975 1.78671
16 13.5612 14.7369 1.75856
ITEM: TIMESTEP
3700
ITEM: NUMBER OF ATOMS
20
ITEM: BOX BOUNDS pp pp pp
-1.0000000000000000e+01 3.0000000000000000e+01
-1.0000000000000000e+01 3.0000000000000000e+01
-1.0000000000000000e+01 3.0000000000000000e+01
ITEM: ATOMS id x y z
1 2.30187 3.86327 1.18468
9 7.77183 10.084 -0.509386
20 15.603 16.0743 -0.240485
19 17.4949 16.1231 -0.208463
2 3.5845 4.54258 1.8495
3 4.08014 6.8914 0.744138
7 6.85037 8.61627 2.16021
8 7.73038 8.60573 0.635334
10 9.50505 10.3239 -0.174704
11 10.2395 11.4507 0.49982
12 10.5987 12.8812 1.39627
17 15.0117 16.2264 2.0502
18 15.5001 14.9582 1.12885
4 5.29135 7.06184 2.1008
5 6.51682 7.60844 1.41772
6 6.68364 8.21731 2.00749
13 10.9164 11.9053 2.36145
14 10.4033 12.8201 1.82753
15 12.4794 14.9404 1.66645
16 13.7541 14.7074 2.10885
ITEM: TIMESTEP
3800
ITEM: NUMBER OF ATOMS
20
ITEM: BOX BOUNDS pp pp pp
-1.0000000000000000e+01 3.0000000000000000e+01
-1.0000000000000000e+01 3.0000000000000000e+01
-1.0000000000000000e+01 3.0000000000000000e+01
ITEM: ATOMS id x y z
1 2.21875 4.08196 0.961965
9 7.50265 10.0729 -0.583146
20 15.5734 16.0034 -0.411888
19 17.3485 16.129 0.105593
2 3.828 4.68448 1.71774
3 4.45298 6.5706 1.02168
7 7.02141 9.25318 1.79597
8 7.84422 8.78288 0.498618
10 9.79973 10.0627 -0.165216
11 10.3637 11.9471 0.567956
12 11.1734 12.5916 1.05778
17 14.6731 16.1919 1.7345
18 15.4038 15.4824 1.06035
4 5.3239 7.45393 1.97945
5 6.70789 7.75073 1.36385
6 6.47724 8.56144 1.77885
13 11.0222 11.975 2.09979
14 10.4462 12.907 1.275
15 12.0978 15.1268 1.62
16 13.544 14.5865 2.84463
ITEM: TIMESTEP
3900
ITEM: NUMBER OF ATOMS
20
ITEM: BOX BOUNDS pp pp pp
-1.0000000000000000e+01 3.0000000000000000e+01
-1.0000000000000000e+01 3.0000000000000000e+01
-1.0000000000000000e+01 3.0000000000000000e+01
ITEM: ATOMS id x y z
1 1.94594 4.27465 1.09356
9 7.72802 9.70372 -0.830406
20 15.988 16.1267 -0.618988
19 16.9438 15.8108 0.409754
2 3.75388 4.85208 1.36919
3 4.50907 6.42827 1.04318
7 7.24869 8.91095 1.81211
8 7.53455 8.67353 0.392143
10 10.0148 10.0075 -0.563472
11 10.4641 11.7623 0.557692
12 11.0812 12.1242 0.936387
17 14.3195 16.0891 2.11717
18 15.8007 15.8565 0.760095
4 5.01715 7.30631 1.89415
5 6.70879 7.93984 1.83257
6 6.37984 8.25377 1.68622
13 11.0784 12.2949 1.89381
14 10.1745 12.7694 0.681608
15 11.7976 14.924 1.36574
16 13.3357 14.6254 2.67132
ITEM: TIMESTEP
4000
ITEM: NUMBER OF ATOMS
20
ITEM: BOX BOUNDS pp pp pp
-1.0000000000000000e+01 3.0000000000000000e+01
-1.0000000000000000e+01 3.0000000000000000e+01
-1.0000000000000000e+01 3.0000000000000000e+01
ITEM: ATOMS id x y z
1 1.69083 4.52837 1.70796
9 8.16972 9.65123 -0.380237
20 15.4112 16.318 -0.364333
19 16.7983 15.9766 0.567112
2 3.76311 5.16811 1.47189
3 4.83287 6.7174 1.18863
7 7.78093 9.07466 1.45458
8 7.41535 8.7403 0.963687
10 9.99518 9.72817 -0.553323
11 10.4849 11.5582 0.439931
12 11.3753 12.3149 0.889386
17 14.2494 16.1691 2.1578
18 15.9766 16.3544 1.15787
4 5.02998 7.03844 2.0661
5 6.99263 8.07298 2.0318
6 6.6168 8.59737 2.00671
13 11.351 12.6538 1.93484
14 9.64925 12.921 0.416884
15 11.778 15.034 1.60446
16 13.6482 14.2597 2.37099
ITEM: TIMESTEP
4100
ITEM: NUMBER OF ATOMS
20