LAMMPS (23 Jun 2022 - Update 3)
  using 16 OpenMP thread(s) per MPI task
units lj
dimension 3
boundary p p p

atom_style full
pair_style lj/cut 2.5
bond_style harmonic
read_data atomsdata.dat
Reading data file ...
  orthogonal box = (-10 -10 -10) to (30 30 30)
  1 by 1 by 1 MPI processor grid
  reading atoms ...
  20 atoms
  reading velocities ...
  20 velocities
  scanning bonds ...
  1 = max bonds/atom
  reading bonds ...
  19 bonds
Finding 1-2 1-3 1-4 neighbors ...
  special bond factors lj:    0        0        0       
  special bond factors coul:  0        0        0       
     2 = max # of 1-2 neighbors
     2 = max # of 1-3 neighbors
     4 = max # of 1-4 neighbors
     6 = max # of special neighbors
  special bonds CPU = 0.000 seconds
  read_data CPU = 0.008 seconds

thermo 100
thermo_style custom step temp pe press vol lx density
dump 2 all custom 10 dump.min.lammpstrj id x y z

fix mynve all nve
minimize 1.0e-10 1.0e-10 10000 10000
WARNING: Using 'neigh_modify every 1 delay 0 check yes' setting during minimization (src/min.cpp:187)
Generated 0 of 0 mixed pair_coeff terms from geometric mixing rule
Neighbor list info ...
  update every 1 steps, delay 0 steps, check yes
  max neighbors/atom: 2000, page size: 100000
  master list distance cutoff = 2.8
  ghost atom cutoff = 2.8
  binsize = 1.4, bins = 29 29 29
  1 neighbor lists, perpetual/occasional/extra = 1 0 0
  (1) pair lj/cut, perpetual
      attributes: half, newton on
      pair build: half/bin/newton
      stencil: half/bin/3d
      bin: standard
Per MPI rank memory allocation (min/avg/max) = 22.18 | 22.18 | 22.18 Mbytes
   Step          Temp          PotEng         Press          Volume           Lx          Density    
         0   0              0.23585933    -0.00014436035  64000          40             0.0003125    
       100   0              3.0729662e-17 -1.043512e-12   64000          40             0.0003125    
       109   0              1.7236657e-19 -2.4568911e-14  64000          40             0.0003125    
Loop time of 0.00227492 on 16 procs for 109 steps with 20 atoms

1939.6% CPU use with 1 MPI tasks x 16 OpenMP threads

Minimization stats:
  Stopping criterion = energy tolerance
  Energy initial, next-to-last, final = 
     0.235859333412807 4.12757115797174e-19 1.72366571397492e-19
  Force two-norm initial, final = 3.4208021 2.8801331e-09
  Force max component initial, final = 1.6905989 9.154066e-10
  Final line search alpha, max atom move = 1 9.154066e-10
  Iterations, force evaluations = 109 188

MPI task timing breakdown:
Section |  min time  |  avg time  |  max time  |%varavg| %total
---------------------------------------------------------------
Pair    | 3.9787e-05 | 3.9787e-05 | 3.9787e-05 |   0.0 |  1.75
Bond    | 0.00014359 | 0.00014359 | 0.00014359 |   0.0 |  6.31
Neigh   | 0.00097875 | 0.00097875 | 0.00097875 |   0.0 | 43.02
Comm    | 6.7623e-05 | 6.7623e-05 | 6.7623e-05 |   0.0 |  2.97
Output  | 0.00057428 | 0.00057428 | 0.00057428 |   0.0 | 25.24
Modify  | 0          | 0          | 0          |   0.0 |  0.00
Other   |            | 0.0004709  |            |       | 20.70

Nlocal:             20 ave          20 max          20 min
Histogram: 1 0 0 0 0 0 0 0 0 0
Nghost:              0 ave           0 max           0 min
Histogram: 1 0 0 0 0 0 0 0 0 0
Neighs:              0 ave           0 max           0 min
Histogram: 1 0 0 0 0 0 0 0 0 0

Total # of neighbors = 0
Ave neighs/atom = 0
Ave special neighs/atom = 5.4
Neighbor list builds = 17
Dangerous builds = 0
undump 2

dump mydmp all custom 100 dump.lammpstrj id x y z

fix mynve all nve
fix mylgv all langevin 1.0 1.0 0.1 1530917
neigh_modify every 1 delay 5 check yes
timestep 0.005
run 100000
Generated 0 of 0 mixed pair_coeff terms from geometric mixing rule
Per MPI rank memory allocation (min/avg/max) = 19.81 | 19.81 | 19.81 Mbytes
   Step          Temp          PotEng         Press          Volume           Lx          Density    
       109   0              1.7236657e-19 -2.4568911e-14  64000          40             0.0003125    
       200   1.2354571      0.11869686     0.00032223454  64000          40             0.0003125    
       300   1.2579808      0.2583235      0.00026916127  64000          40             0.0003125    
       400   1.3607685      0.44709977     0.00022338255  64000          40             0.0003125    
       500   1.0257326      0.55017421     7.6395275e-05  64000          40             0.0003125    
       600   1.0116755      0.5266105      7.7997672e-05  64000          40             0.0003125    
       700   1.1538129      0.57894906     0.00010048756  64000          40             0.0003125    
       800   1.2264974      0.82104734     4.3079728e-05  64000          40             0.0003125    
       900   1.1963179      1.2399659     -8.461832e-05   64000          40             0.0003125    
      1000   1.3061802      0.96973531     4.0289293e-05  64000          40             0.0003125    
      1100   0.97767717     1.1023455     -0.00011091761  64000          40             0.0003125    
      1200   0.79599864     0.91097118    -0.00012350798  64000          40             0.0003125    
      1300   0.97998998     0.76351945    -1.0182042e-05  64000          40             0.0003125    
      1400   1.0892363      0.8828675     -1.833687e-05   64000          40             0.0003125    
      1500   1.1306258      1.1247587     -6.9252277e-05  64000          40             0.0003125    
      1600   1.0831451      1.0840501     -7.3026167e-05  64000          40             0.0003125    
      1700   1.0726788      1.1302761     -9.218926e-05   64000          40             0.0003125    
      1800   1.1696006      1.0521394     -3.8347606e-05  64000          40             0.0003125    
      1900   1.3007372      1.2677913     -6.0952818e-05  64000          40             0.0003125    
      2000   0.95173077     1.1487394     -0.00014211037  64000          40             0.0003125    
      2100   0.89438307     0.84829378    -6.8690052e-05  64000          40             0.0003125    
      2200   1.2444974      0.86581154     2.5078783e-05  64000          40             0.0003125    
      2300   0.76867168     0.96596517    -0.00014243818  64000          40             0.0003125    
      2400   1.1963785      0.70904355     6.6495212e-05  64000          40             0.0003125    
      2500   1.3061988      0.61517237     0.00015197679  64000          40             0.0003125    
      2600   0.94212349     0.79984352    -1.9122638e-05  64000          40             0.0003125    
      2700   0.88945317     0.6889606     -9.3625451e-06  64000          40             0.0003125    
      2800   1.1342715      0.4715452      0.000133998    64000          40             0.0003125    
      2900   1.0316179      0.41752078     0.0001194168   64000          40             0.0003125    
      3000   1.0584673      0.51861744     9.0627985e-05  64000          40             0.0003125    
      3100   1.0757577      0.58003854     8.5967046e-05  64000          40             0.0003125    
      3200   1.3455568      0.51794851     0.00018570175  64000          40             0.0003125    
      3300   1.0770459      0.57957109     9.904998e-05   64000          40             0.0003125    
      3400   1.1853935      0.54236826     0.00014939771  64000          40             0.0003125    
      3500   1.2895904      0.46851242     0.00018129642  64000          40             0.0003125    
      3600   1.2119759      0.5257601      0.00013435324  64000          40             0.0003125    
      3700   1.1772679      0.80990433     3.8682065e-05  64000          40             0.0003125    
      3800   1.0528281      0.73942791     1.5205212e-05  64000          40             0.0003125    
      3900   0.99696633     0.63696612     4.2145533e-05  64000          40             0.0003125    
      4000   0.74444719     0.86401613    -0.00010047041  64000          40             0.0003125    
      4100   1.0531419      0.66901496     3.9666061e-05  64000          40             0.0003125    
      4200   0.97680957     0.68567435     1.3855222e-05  64000          40             0.0003125    
      4300   0.96759708     0.76329853    -1.95492e-05    64000          40             0.0003125    
      4400   1.0622951      0.63087242     4.5399203e-05  64000          40             0.0003125    
      4500   1.2245568      0.59442917     0.00012541831  64000          40             0.0003125    
      4600   1.4757675      0.71175821     0.00016966424  64000          40             0.0003125    
      4700   1.0115163      0.81012532    -8.9004809e-06  64000          40             0.0003125    
      4800   1.5565741      0.72257825     0.00017574724  64000          40             0.0003125    
      4900   0.88743231     0.64860318    -7.7815232e-07  64000          40             0.0003125    
      5000   1.4449228      0.65831217     0.00015817393  64000          40             0.0003125    
      5100   1.0403742      0.71614692     2.8006851e-05  64000          40             0.0003125    
      5200   0.72575838     0.55452877    -9.8444379e-06  64000          40             0.0003125    
      5300   1.0396471      0.59259718     6.7283094e-05  64000          40             0.0003125    
      5400   0.95280341     0.81748236    -2.9544564e-05  64000          40             0.0003125    
      5500   1.4007524      0.56433009     0.0001838917   64000          40             0.0003125    
      5600   0.76887319     0.55333464     6.9583722e-06  64000          40             0.0003125    
      5700   0.80366543     0.47543991     4.667443e-05   64000          40             0.0003125    
      5800   1.4695648      0.82833749     0.00014242101  64000          40             0.0003125    
      5900   1.2771366      0.84213308     9.1279127e-05  64000          40             0.0003125    
      6000   0.8358412      0.6950944     -7.5834336e-06  64000          40             0.0003125    
      6100   0.85900814     0.72343563    -2.4463721e-05  64000          40             0.0003125    
      6200   1.1916536      0.99454461    -1.9697156e-05  64000          40             0.0003125    
      6300   1.0827934      1.0308702     -7.5770365e-05  64000          40             0.0003125    
      6400   0.57089884     1.0194243     -0.00023035475  64000          40             0.0003125    
      6500   0.9390879      0.99254704    -0.00010865483  64000          40             0.0003125    
      6600   0.93359293     1.2263963     -0.00018278964  64000          40             0.0003125    
      6700   0.9243629      1.2466511     -0.00017623079  64000          40             0.0003125    
      6800   1.2370661      1.0769923     -2.2736894e-05  64000          40             0.0003125    
      6900   1.0290523      1.1571417     -0.00012773617  64000          40             0.0003125    
      7000   0.97553506     0.97330981    -0.0001063004   64000          40             0.0003125    
      7100   1.3479087      1.0994308     -4.660683e-05   64000          40             0.0003125    
      7200   1.023035       0.96015502    -7.84453e-05    64000          40             0.0003125    
      7300   1.3044754      0.81753207     5.7657472e-05  64000          40             0.0003125    
      7400   1.1150153      0.82234384    -2.7417527e-06  64000          40             0.0003125    
      7500   1.0610268      0.76914846    -1.6544872e-06  64000          40             0.0003125    
      7600   1.1584825      0.8033105      1.8297976e-05  64000          40             0.0003125    
      7700   0.94914894     0.60363348     1.8294899e-05  64000          40             0.0003125    
      7800   1.2265979      0.62816284     9.2787759e-05  64000          40             0.0003125    
      7900   1.0988518      0.83432513    -1.5582659e-05  64000          40             0.0003125    
      8000   1.0999184      0.95643328    -4.6881118e-05  64000          40             0.0003125    
      8100   1.0851678      1.0409395     -7.5890938e-05  64000          40             0.0003125    
      8200   0.97430135     1.1178135     -0.00011577467  64000          40             0.0003125    
      8300   1.0395743      1.2380204     -0.00012737106  64000          40             0.0003125    
      8400   1.2695649      1.0360044     -8.8613184e-06  64000          40             0.0003125    
      8500   0.92600803     0.8476886     -5.7226459e-05  64000          40             0.0003125    
      8600   1.040786       0.84612249    -1.8597366e-06  64000          40             0.0003125    
      8700   1.0281245      0.4245024      0.00011979898  64000          40             0.0003125    
      8800   0.70433569     0.54785863    -2.0768647e-05  64000          40             0.0003125    
      8900   1.1116944      0.50937152     0.00010712575  64000          40             0.0003125    
      9000   1.0964656      0.42144294     0.00013364297  64000          40             0.0003125    
      9100   0.85695354     0.53362249     2.6567528e-05  64000          40             0.0003125    
      9200   1.377646       0.50219321     0.00021159156  64000          40             0.0003125    
      9300   1.1361929      0.79159994     6.0592697e-05  64000          40             0.0003125    
      9400   1.2030954      0.7491663      8.5139967e-05  64000          40             0.0003125    
      9500   1.1044752      1.0293902     -4.1437057e-05  64000          40             0.0003125    
      9600   0.59259697     1.0565932     -0.00020229958  64000          40             0.0003125    
      9700   0.87765525     0.96974891    -0.00011497351  64000          40             0.0003125    
      9800   1.2145373      0.76001351     4.8133853e-05  64000          40             0.0003125    
      9900   0.80103524     0.72489549    -6.3747608e-05  64000          40             0.0003125    
     10000   1.0418226      0.64542653     3.9316399e-05  64000          40             0.0003125    
     10100   1.492527       0.62456871     0.00018580854  64000          40             0.0003125    
     10200   0.87238563     0.75642902    -3.9726803e-05  64000          40             0.0003125    
     10300   0.88055404     0.73671775    -3.1892375e-05  64000          40             0.0003125    
     10400   1.0772933      0.63296421     5.8924797e-05  64000          40             0.0003125    
     10500   0.79800287     0.73980434    -5.2802084e-05  64000          40             0.0003125    
     10600   1.0014906      0.64071294     1.3560272e-05  64000          40             0.0003125    
     10700   1.0459706      0.91512499    -4.8435126e-05  64000          40             0.0003125    
     10800   0.86762954     1.1063022     -0.00014644256  64000          40             0.0003125    
     10900   0.94801478     0.93364081    -7.3041688e-05  64000          40             0.0003125    
     11000   1.2233524      0.75372904     5.2600501e-05  64000          40             0.0003125    
     11100   0.86917176     0.63626858    -2.2886921e-05  64000          40             0.0003125    
     11200   1.0503256      0.76698178     2.0124235e-05  64000          40             0.0003125    
     11300   1.0237962      0.79982243    -5.7808538e-07  64000          40             0.0003125    
     11400   1.3028767      0.86267421     4.9418011e-05  64000          40             0.0003125    
     11500   1.0067007      1.0314875     -7.1168942e-05  64000          40             0.0003125    
     11600   1.0484266      1.0118205     -3.9114556e-05  64000          40             0.0003125    
     11700   1.0299725      0.79871728    -3.0629635e-06  64000          40             0.0003125    
     11800   0.72955059     0.84712223    -0.00011257915  64000          40             0.0003125    
     11900   0.91060973     0.9959817     -9.4669798e-05  64000          40             0.0003125    
     12000   0.97801688     1.246849      -0.00016129865  64000          40             0.0003125    
     12100   1.2569274      1.6653233     -0.00019129111  64000          40             0.0003125    
     12200   1.1397558      1.5098966     -0.00018532897  64000          40             0.0003125    
     12300   1.3206465      1.3614047     -8.4399493e-05  64000          40             0.0003125    
     12400   1.066314       1.0970158     -7.8687744e-05  64000          40             0.0003125    
     12500   1.2111939      0.87735221     2.7670461e-05  64000          40             0.0003125    
     12600   1.1245934      0.73242885     5.1438771e-05  64000          40             0.0003125    
     12700   0.97011713     0.78140075    -1.0288353e-05  64000          40             0.0003125    
     12800   1.0354146      0.79338788     8.7793248e-06  64000          40             0.0003125    
     12900   1.1590788      0.89022076     8.1892613e-06  64000          40             0.0003125    
     13000   0.83245496     1.1832289     -0.0001703128   64000          40             0.0003125    
     13100   1.1726591      1.17502       -7.6691355e-05  64000          40             0.0003125    
     13200   1.411974       1.2296833     -3.3673065e-05  64000          40             0.0003125    
     13300   0.9453217      1.2205297     -0.00016119628  64000          40             0.0003125    
     13400   0.95576224     1.0262106     -9.6359568e-05  64000          40             0.0003125    
     13500   1.2074014      1.0592019     -3.5972158e-05  64000          40             0.0003125    
     13600   1.0425813      0.85855092    -1.9009589e-05  64000          40             0.0003125    
     13700   1.3801966      1.0145423      5.6789204e-05  64000          40             0.0003125    
     13800   0.98785203     1.2192195     -0.00013143271  64000          40             0.0003125    
     13900   1.0280964      1.1255321     -0.00011613197  64000          40             0.0003125    
     14000   1.2117381      1.1789572     -6.5410333e-05  64000          40             0.0003125    
     14100   0.88315485     1.2412739     -0.00019572912  64000          40             0.0003125    
     14200   1.0103888      1.1630739     -0.00013230358  64000          40             0.0003125    
     14300   0.77062562     1.1784784     -0.00020203741  64000          40             0.0003125    
     14400   0.82879309     1.1522119     -0.00016482394  64000          40             0.0003125    
     14500   0.79571615     1.101281      -0.00015331566  64000          40             0.0003125    
     14600   0.95966546     0.92833773    -6.6761155e-05  64000          40             0.0003125    
     14700   0.99232794     1.038551      -9.5448251e-05  64000          40             0.0003125    
     14800   1.2209032      1.1070506     -4.683086e-05   64000          40             0.0003125    
     14900   1.0844032      1.1506869     -0.00012989753  64000          40             0.0003125    
     15000   1.0242319      1.0200541     -6.1815579e-05  64000          40             0.0003125    
     15100   1.0208754      1.0153062     -0.00011518208  64000          40             0.0003125    
     15200   1.0362958      0.9905398     -0.00010571674  64000          40             0.0003125    
     15300   0.90544674     1.0822939     -0.00017836179  64000          40             0.0003125    
     15400   0.73768524     0.78206536    -0.00011497729  64000          40             0.0003125    
     15500   1.3433483      1.0177259     -2.3552332e-05  64000          40             0.0003125    
     15600   0.97772525     1.1552754     -0.00015902276  64000          40             0.0003125    
     15700   1.0569145      0.9860067     -7.3472508e-05  64000          40             0.0003125    
     15800   1.0628287      0.69504461     1.8739751e-05  64000          40             0.0003125    
     15900   1.607834       0.7636594      0.00023796485  64000          40             0.0003125    
     16000   1.4978294      0.68353582     0.00016888622  64000          40             0.0003125    
     16100   1.1357519      0.65268273     5.0295667e-05  64000          40             0.0003125    
     16200   1.1173107      0.69996823     3.711445e-05   64000          40             0.0003125    
     16300   1.0885125      0.82976311    -2.850567e-05   64000          40             0.0003125    
     16400   1.3064126      0.89167903     2.0143037e-06  64000          40             0.0003125    
     16500   0.91299009     1.1427687     -0.00016751533  64000          40             0.0003125    
     16600   1.0137478      0.74652647     3.0000784e-05  64000          40             0.0003125    
     16700   0.68960946     0.96019766    -0.00019013557  64000          40             0.0003125    
     16800   1.0815222      0.97489214    -8.9430207e-05  64000          40             0.0003125    
     16900   1.0766591      1.0201393     -0.00010030235  64000          40             0.0003125    
     17000   1.1013269      1.0019184     -6.9972599e-05  64000          40             0.0003125    
     17100   1.3567499      0.99098757     4.8887357e-06  64000          40             0.0003125    
     17200   1.3331184      0.95945655     2.2993054e-05  64000          40             0.0003125    
     17300   1.1956247      0.88546379     1.7107818e-05  64000          40             0.0003125    
     17400   1.2717453      1.0292294     -5.3255454e-06  64000          40             0.0003125    
     17500   1.2327081      0.85827004     3.154787e-05   64000          40             0.0003125    
     17600   1.0471969      0.71787813     2.5659742e-05  64000          40             0.0003125    
     17700   1.2486602      0.70793012     8.7273884e-05  64000          40             0.0003125    
     17800   1.0568242      0.73871493     1.9520623e-06  64000          40             0.0003125    
     17900   0.92862252     0.78274773    -4.1934531e-05  64000          40             0.0003125    
     18000   1.245223       0.76901033     4.920885e-05   64000          40             0.0003125    
     18100   0.90357958     0.78316094    -7.0819055e-05  64000          40             0.0003125    
     18200   1.1414307      0.77006609     6.7287759e-06  64000          40             0.0003125    
     18300   1.1397288      0.88667987    -2.2707952e-06  64000          40             0.0003125    
     18400   1.1228402      0.97546877    -4.7694619e-05  64000          40             0.0003125    
     18500   0.91185005     0.80288718    -6.3762424e-05  64000          40             0.0003125    
     18600   1.0396266      0.96919833    -7.8161404e-05  64000          40             0.0003125    
     18700   0.96306628     1.1004512     -0.00012387044  64000          40             0.0003125    
     18800   1.281633       0.98695388    -1.2251094e-05  64000          40             0.0003125    
     18900   1.2193663      0.80985445     6.0674319e-06  64000          40             0.0003125    
     19000   1.0823628      0.65653841     2.2384301e-05  64000          40             0.0003125    
     19100   1.0070909      0.79208277    -2.5118272e-05  64000          40             0.0003125    
     19200   1.2984168      0.7388203      5.6936929e-05  64000          40             0.0003125    
     19300   1.203163       0.7205977      1.9893536e-05  64000          40             0.0003125    
     19400   1.3479329      0.81713596     6.4536218e-05  64000          40             0.0003125    
     19500   0.95885564     0.88239261    -8.6734567e-05  64000          40             0.0003125    
     19600   1.0451454      0.88503537    -7.9841835e-05  64000          40             0.0003125    
     19700   0.73227368     0.85624956    -0.00013244355  64000          40             0.0003125    
     19800   1.176488       0.89457607    -3.4577755e-05  64000          40             0.0003125    
     19900   1.0117125      1.2341745     -0.00016405445  64000          40             0.0003125    
     20000   1.0897255      1.1472681     -0.00011648196  64000          40             0.0003125    
     20100   0.91941626     0.95057599    -0.00010109496  64000          40             0.0003125    
     20200   1.0478208      0.67303026     4.7643946e-06  64000          40             0.0003125    
     20300   0.99004138     0.57597544     1.1025126e-05  64000          40             0.0003125    
     20400   1.0201107      0.68898034     2.3600295e-06  64000          40             0.0003125    
     20500   0.74691544     0.81004288    -0.00013242379  64000          40             0.0003125    
     20600   0.88437308     1.0091572     -0.00013652942  64000          40             0.0003125    
     20700   0.92934669     0.90971736    -7.526669e-05   64000          40             0.0003125    
     20800   0.87718954     0.91855105    -0.00012787445  64000          40             0.0003125    
     20900   0.94071903     0.97540255    -0.00014074235  64000          40             0.0003125    
     21000   0.98818274     1.0262877     -0.00014229124  64000          40             0.0003125    
     21100   0.99756842     0.88294106    -0.00010197858  64000          40             0.0003125    
     21200   1.1060794      1.109738      -9.919073e-05   64000          40             0.0003125    
     21300   0.95114907     1.1584746     -0.00014685829  64000          40             0.0003125    
     21400   1.1056801      0.80966916    -2.4034737e-05  64000          40             0.0003125    
     21500   1.4568751      0.82763277     8.1850079e-05  64000          40             0.0003125    
     21600   0.87850831     0.96762875    -0.00011820584  64000          40             0.0003125    
     21700   0.80217392     0.97414062    -0.00013754012  64000          40             0.0003125    
     21800   0.98346938     0.86010474    -4.4364254e-05  64000          40             0.0003125    
     21900   0.70244098     0.81446751    -0.00012070532  64000          40             0.0003125    
     22000   1.2260127      0.9502963     -1.220318e-05   64000          40             0.0003125    
     22100   0.65023712     1.1516945     -0.00024298027  64000          40             0.0003125    
     22200   0.96128186     0.91537607    -7.6785318e-05  64000          40             0.0003125    
     22300   1.0391969      0.84177965    -2.3025451e-05  64000          40             0.0003125    
     22400   0.87483154     0.76554233    -4.075881e-05   64000          40             0.0003125    
     22500   1.1167823      0.77753423     3.0489661e-05  64000          40             0.0003125    
     22600   0.86847402     0.66421786    -3.5790898e-05  64000          40             0.0003125    
     22700   1.1927829      0.60260562     9.7073704e-05  64000          40             0.0003125    
     22800   1.0372992      0.61043895     2.0380949e-05  64000          40             0.0003125    
     22900   1.312794       0.63652458     0.00010858788  64000          40             0.0003125    
     23000   0.90370265     0.63180336    -4.3474929e-06  64000          40             0.0003125    
     23100   1.1096915      0.59135849     5.4173698e-05  64000          40             0.0003125    
     23200   1.2443118      0.58936893     0.00010406941  64000          40             0.0003125    
     23300   1.5345093      0.73002311     0.00014382404  64000          40             0.0003125    
     23400   1.3025453      0.88697923     1.6398223e-05  64000          40             0.0003125    
     23500   1.3664751      0.99411563     1.4267284e-05  64000          40             0.0003125    
     23600   0.76304431     0.87945726    -0.00014345626  64000          40             0.0003125    
     23700   1.2002931      0.88951771    -1.3775691e-05  64000          40             0.0003125    
     23800   0.89229866     0.94447015    -9.1601849e-05  64000          40             0.0003125    
     23900   1.0525904      0.74115737     1.3412072e-05  64000          40             0.0003125    
     24000   0.85761547     0.78054434    -8.1678794e-05  64000          40             0.0003125    
     24100   1.0340702      0.93802239    -7.2995484e-05  64000          40             0.0003125    
     24200   0.80924038     0.93918067    -0.00013641834  64000          40             0.0003125    
     24300   1.1766454      0.93707341    -2.5560188e-05  64000          40             0.0003125    
     24400   1.2367322      0.92732522     6.3578235e-06  64000          40             0.0003125    
     24500   0.99343923     0.83246002    -4.6824785e-05  64000          40             0.0003125    
     24600   1.0180733      0.79767207     1.592633e-05   64000          40             0.0003125    
     24700   1.1488261      0.90580918    -2.5543564e-05  64000          40             0.0003125    
     24800   0.83482451     0.73495759    -8.3798227e-05  64000          40             0.0003125    
     24900   0.92929406     0.73588552    -5.4176045e-05  64000          40             0.0003125    
     25000   1.1171124      0.74028382    -1.1866672e-06  64000          40             0.0003125    
     25100   0.98572823     0.67837363    -4.555598e-06   64000          40             0.0003125    
     25200   1.1870101      0.72491522     0.00016349069  64000          40             0.0003125    
     25300   0.74643169     0.75972014    -0.00013724643  64000          40             0.0003125    
     25400   1.4078496      0.90601012     6.2968813e-06  64000          40             0.0003125    
     25500   1.3107371      0.90073868     1.134097e-05   64000          40             0.0003125    
     25600   1.0546985      0.91086423     7.5736773e-05  64000          40             0.0003125    
     25700   1.1437991      0.57092534     1.6198454e-05  64000          40             0.0003125    
     25800   0.994793       0.59393596    -3.3605365e-05  64000          40             0.0003125    
     25900   1.0070674      0.71290074    -8.9132513e-05  64000          40             0.0003125    
     26000   0.91148439     0.68939519    -6.0376527e-05  64000          40             0.0003125    
     26100   0.97791248     1.0135592     -0.00013642434  64000          40             0.0003125    
     26200   0.91315014     1.0466168     -0.00016024245  64000          40             0.0003125    
     26300   1.5999002      0.64519428     8.815376e-05   64000          40             0.0003125    
     26400   0.92869845     0.33291189     4.2758854e-05  64000          40             0.0003125    
     26500   1.0657577      0.4119427      1.2179315e-05  64000          40             0.0003125    
     26600   1.1183947      0.56569171     7.0961812e-06  64000          40             0.0003125    
     26700   1.0128296      0.63824425    -9.6629017e-05  64000          40             0.0003125    
     26800   0.95452828     0.6586661     -3.1133886e-05  64000          40             0.0003125    
     26900   1.145169       0.53596875    -4.6199777e-05  64000          40             0.0003125    
     27000   0.93493615     0.45672171     0.00026950486  64000          40             0.0003125    
     27100   1.3051941      0.36203821     6.5636456e-05  64000          40             0.0003125    
     27200   1.0634104      0.17737669     2.2727423e-05  64000          40             0.0003125    
     27300   1.0955233      0.31925606     0.00017798402  64000          40             0.0003125    
     27400   1.1388077      0.28583688    -1.7541635e-05  64000          40             0.0003125    
     27500   0.89956836     0.28567        0.00030376095  64000          40             0.0003125    
     27600   1.116491       0.50600243    -7.1694967e-05  64000          40             0.0003125    
     27700   0.82761299     0.56359793    -0.00015698565  64000          40             0.0003125    
     27800   1.0446615      0.33397665     8.1008977e-05  64000          40             0.0003125    
     27900   1.1329315      0.088436296    1.3226649e-05  64000          40             0.0003125    
     28000   1.1847267      0.28382785    -3.7516923e-06  64000          40             0.0003125    
     28100   1.0541596      0.4322776     -8.3171434e-05  64000          40             0.0003125    
     28200   0.93906306     0.29258054    -7.6418665e-05  64000          40             0.0003125    
     28300   0.61534124     0.33544478    -2.9300375e-05  64000          40             0.0003125    
     28400   1.0295303      0.37087667     7.743805e-05   64000          40             0.0003125    
     28500   0.95112171     0.32962451    -0.00010554504  64000          40             0.0003125    
     28600   0.93838696     0.38203528     0.00013703827  64000          40             0.0003125    
     28700   0.92814992     0.39583817    -0.00017672991  64000          40             0.0003125    
     28800   1.3034165      0.10941688     8.980613e-05   64000          40             0.0003125    
     28900   1.5328154      0.14574953     0.00018728412  64000          40             0.0003125    
     29000   0.93847034     0.22733958    -0.00010503119  64000          40             0.0003125    
     29100   0.86946274     0.22829108    -6.2327728e-05  64000          40             0.0003125    
     29200   1.5087393      0.58263918    -9.5437863e-07  64000          40             0.0003125    
     29300   0.84549736     0.44500323    -6.7471502e-05  64000          40             0.0003125    
     29400   1.2182964      0.42722411     2.0701027e-05  64000          40             0.0003125    
     29500   1.0949077      0.41623204    -1.345386e-05   64000          40             0.0003125    
     29600   0.99513582     0.29099231    -1.4396182e-05  64000          40             0.0003125    
     29700   1.1041487      0.5561882     -4.9991041e-05  64000          40             0.0003125    
     29800   0.87590157     0.64880584    -9.4166325e-05  64000          40             0.0003125    
     29900   0.99249619     0.64942144     4.687377e-05   64000          40             0.0003125    
     30000   0.80762357     0.35715596    -8.2737319e-05  64000          40             0.0003125    
     30100   0.63780006     0.37138088    -0.00012666237  64000          40             0.0003125    
     30200   1.0976795      0.48406412    -2.8353339e-05  64000          40             0.0003125    
     30300   1.0787371      0.3498716      1.6679729e-05  64000          40             0.0003125    
     30400   1.2400669      0.54334545     0.00019186271  64000          40             0.0003125    
     30500   0.98110395     0.40068078    -2.8609766e-05  64000          40             0.0003125    
     30600   1.1414945      0.3735035     -6.5772583e-05  64000          40             0.0003125    
     30700   1.1512663      0.35670381     0.00026508683  64000          40             0.0003125    
     30800   1.0823078      0.30516863     0.00010770097  64000          40             0.0003125    
     30900   0.70414436     0.52180414    -0.00027036561  64000          40             0.0003125    
     31000   1.1322504      0.23165111     9.8877248e-05  64000          40             0.0003125    
     31100   1.1973558      0.096360906    0.00014629734  64000          40             0.0003125    
     31200   0.89126983     0.34413069    -3.3685906e-05  64000          40             0.0003125    
     31300   0.7836003      0.20589404    -8.4173476e-05  64000          40             0.0003125    
     31400   1.0573299      0.25886817     0.00028712138  64000          40             0.0003125    
     31500   0.98934313     0.14750537     3.0167201e-06  64000          40             0.0003125    
     31600   0.72862836     0.17788798     0.00024678648  64000          40             0.0003125    
     31700   0.93650131     0.22162257    -8.8633382e-05  64000          40             0.0003125    
     31800   1.0717263      0.36069128    -7.6739399e-05  64000          40             0.0003125    
     31900   1.0187971      0.12713954    -8.4552902e-05  64000          40             0.0003125    
     32000   1.3603841      0.086625804    1.7812027e-05  64000          40             0.0003125    
     32100   1.1494634      0.023035355    9.6551098e-06  64000          40             0.0003125    
     32200   1.2648129      0.22155855     0.00021914507  64000          40             0.0003125    
     32300   1.0077236      0.25020034     4.056363e-05   64000          40             0.0003125    
     32400   0.8888667      0.16511031    -0.00011390361  64000          40             0.0003125    
     32500   0.79396183     0.16990202    -0.00017470925  64000          40             0.0003125    
     32600   0.87292436     0.076775185   -0.00011667473  64000          40             0.0003125    
     32700   1.1820931      0.06635455     4.7671047e-05  64000          40             0.0003125    
     32800   0.90083273     0.20042561     5.411606e-06   64000          40             0.0003125    
     32900   0.98814299     0.017070641    8.1358013e-05  64000          40             0.0003125    
     33000   0.86681626     0.1983671     -0.00014296268  64000          40             0.0003125    
     33100   1.0739949      0.54997341     4.4600872e-05  64000          40             0.0003125    
     33200   1.0207225      0.6448118     -0.00015134238  64000          40             0.0003125    
     33300   1.0388823      0.658795      -0.00016117412  64000          40             0.0003125    
     33400   1.0359568      0.71662022    -0.00016568067  64000          40             0.0003125    
     33500   0.65600165     0.60660411    -0.00024970581  64000          40             0.0003125    
     33600   1.1542435      0.41000397    -1.3220611e-05  64000          40             0.0003125    
     33700   0.82621412     0.48458893    -0.00010856258  64000          40             0.0003125    
     33800   1.0207977      0.26085928    -9.6399515e-05  64000          40             0.0003125    
     33900   1.3642968      0.27984714     7.5313008e-05  64000          40             0.0003125    
     34000   0.9651828      0.19532625    -7.8399749e-06  64000          40             0.0003125    
     34100   0.95580339     0.37731651    -0.00017679159  64000          40             0.0003125    
     34200   0.79871311     0.15399431    -0.00019077783  64000          40             0.0003125    
     34300   1.2400066      0.23146541     0.00015535153  64000          40             0.0003125    
     34400   0.85001253     0.29947824     4.458966e-06   64000          40             0.0003125    
     34500   0.79099039     0.20536099    -6.5036813e-05  64000          40             0.0003125    
     34600   1.1717792      0.076583556    0.00070131382  64000          40             0.0003125    
     34700   0.9957514      0.059529505    0.00028866745  64000          40             0.0003125    
     34800   0.96908528     0.1314758     -6.9598088e-05  64000          40             0.0003125    
     34900   1.3616748      0.14476153     0.00012416443  64000          40             0.0003125    
     35000   1.0390239      0.39576223     4.2923089e-05  64000          40             0.0003125    
     35100   1.08531        0.46945642    -6.2505434e-05  64000          40             0.0003125    
     35200   1.0868503      0.36445969    -9.5969103e-05  64000          40             0.0003125    
     35300   0.99052532     0.29066142    -9.8650026e-05  64000          40             0.0003125    
     35400   0.82013973     0.51713716    -3.4987222e-05  64000          40             0.0003125    
     35500   1.148591       0.33016085     0.00013458871  64000          40             0.0003125    
     35600   1.3852936      0.27575682     0.0001793111   64000          40             0.0003125    
     35700   0.82954861     0.17117119     2.5105741e-05  64000          40             0.0003125    
     35800   1.1954752      0.22686966     4.371982e-05   64000          40             0.0003125    
     35900   0.86291059     0.20734728    -8.7249981e-05  64000          40             0.0003125    
     36000   1.323903       0.3740998      0.00011940577  64000          40             0.0003125    
     36100   0.90917013     0.18873372    -0.00010997364  64000          40             0.0003125    
     36200   1.2681991      0.12913909     6.1583225e-05  64000          40             0.0003125    
     36300   0.84215817     0.19883795    -0.00012631872  64000          40             0.0003125    
     36400   0.77638806     0.24802412     0.00016505081  64000          40             0.0003125    
     36500   1.3171235      0.3529384      0.00039144296  64000          40             0.0003125    
     36600   1.1352082      0.13873883    -2.5048635e-05  64000          40             0.0003125    
     36700   0.93530269     0.08353271    -1.8179791e-05  64000          40             0.0003125    
     36800   1.0691525      0.18539463    -4.5295405e-06  64000          40             0.0003125    
     36900   1.0939969      0.23492282     3.0166922e-05  64000          40             0.0003125    
     37000   0.90011152     0.39993471    -1.0077113e-05  64000          40             0.0003125    
     37100   0.7866024      0.36416203    -7.3710896e-05  64000          40             0.0003125    
     37200   1.0642451      0.38852505    -4.2571164e-05  64000          40             0.0003125    
     37300   1.1763031      0.71438518     2.2220104e-05  64000          40             0.0003125    
     37400   0.65098355     0.45002222    -0.00024434331  64000          40             0.0003125    
     37500   1.1087078      0.49913077    -2.2509152e-05  64000          40             0.0003125    
     37600   0.91840881     0.41073968    -0.00013515137  64000          40             0.0003125    
     37700   1.2452441      0.71469841     8.7344485e-05  64000          40             0.0003125    
     37800   1.0757116      0.62057353    -0.00010263936  64000          40             0.0003125    
     37900   0.96392521     0.81815061    -0.00021150713  64000          40             0.0003125    
     38000   0.96909685     0.82913971    -0.00026041402  64000          40             0.0003125    
     38100   1.0514316      0.67819186    -0.00014449355  64000          40             0.0003125    
     38200   1.2873038      0.73213849    -2.8726553e-05  64000          40             0.0003125    
     38300   0.63272521     0.81380562    -0.00022913733  64000          40             0.0003125    
     38400   0.79617801     0.89215883    -0.00024559822  64000          40             0.0003125    
     38500   0.92904968     0.90306643    -0.00023858133  64000          40             0.0003125    
     38600   1.1242896      0.6797915     -0.00016011348  64000          40             0.0003125    
     38700   1.1810079      1.3936242     -0.00024593057  64000          40             0.0003125    
     38800   1.2049942      1.2329418     -0.00016176965  64000          40             0.0003125    
     38900   1.1042413      1.1339398     -0.00022516927  64000          40             0.0003125    
     39000   0.92690637     1.0615377     -0.00014209077  64000          40             0.0003125    
     39100   1.1938585      1.0073106     -8.3887271e-05  64000          40             0.0003125    
     39200   0.81215641     0.87738564    -0.0001723865   64000          40             0.0003125    
     39300   1.1668041      0.79296895    -6.7518973e-05  64000          40             0.0003125    
     39400   0.99766561     0.66795407    -7.7229682e-05  64000          40             0.0003125    
     39500   1.0264441      0.58668723     0.00020149553  64000          40             0.0003125    
     39600   1.2948648      0.50112306    -3.0326501e-05  64000          40             0.0003125    
     39700   1.4219453      0.58882135     1.4993858e-05  64000          40             0.0003125    
     39800   0.73465389     0.74711758    -7.4588566e-05  64000          40             0.0003125    
     39900   1.6478368      0.64507177     0.00011228212  64000          40             0.0003125    
     40000   1.0772132      0.50031014     2.1551528e-05  64000          40             0.0003125    
     40100   1.2848844      0.88665498     8.7993589e-05  64000          40             0.0003125    
     40200   0.85846971     1.0407959      0.00012537005  64000          40             0.0003125    
     40300   1.0403601      0.85961152    -0.00018663623  64000          40             0.0003125    
     40400   0.71486899     0.9445706     -0.00036142878  64000          40             0.0003125    
     40500   1.2605233      0.83278006     3.7220393e-05  64000          40             0.0003125    
     40600   0.95027541     0.70098586    -0.00022426578  64000          40             0.0003125    
     40700   0.99807149     0.73464032     1.8703871e-05  64000          40             0.0003125    
     40800   1.1385395      0.48564958    -5.4458682e-05  64000          40             0.0003125    
     40900   1.0317742      0.46208228    -7.3674841e-05  64000          40             0.0003125    
     41000   0.98033174     0.41551025    -0.00011404279  64000          40             0.0003125    
     41100   1.0979976      0.28672674     0.00011324252  64000          40             0.0003125    
     41200   1.2558757      0.44984765     2.2780326e-06  64000          40             0.0003125    
     41300   0.91947621     0.62202642    -2.1216745e-06  64000          40             0.0003125    
     41400   0.87214297     0.49554341    -0.00011150301  64000          40             0.0003125    
     41500   0.80407203     0.24266624     1.6215724e-05  64000          40             0.0003125    
     41600   1.1364466      0.31071181    -2.5439729e-05  64000          40             0.0003125    
     41700   1.112663       0.36013652    -9.9962706e-05  64000          40             0.0003125    
     41800   0.93214634     0.51070837    -5.3179409e-05  64000          40             0.0003125    
     41900   1.3980814      0.40624114     0.00012549061  64000          40             0.0003125    
     42000   1.0143175      0.4247966      9.5892129e-05  64000          40             0.0003125    
     42100   1.1738674      0.35515732     1.0255788e-05  64000          40             0.0003125    
     42200   1.3210018      0.67260336    -0.00013156871  64000          40             0.0003125    
     42300   0.92724769     0.60020072    -0.00016652346  64000          40             0.0003125    
     42400   1.1592265      0.52797341    -0.00013915357  64000          40             0.0003125    
     42500   1.0635431      0.68011484    -9.8080461e-05  64000          40             0.0003125    
     42600   0.89417289     0.71098501    -0.00027454998  64000          40             0.0003125    
     42700   1.1461076      0.77642358    -5.6050426e-05  64000          40             0.0003125    
     42800   0.76405079     0.51196785    -0.00027792272  64000          40             0.0003125    
     42900   0.87058884     0.59048836     9.0503736e-05  64000          40             0.0003125    
     43000   1.5056204      0.60241947     0.0002215189   64000          40             0.0003125    
     43100   1.2763828      0.6062275     -0.00010530417  64000          40             0.0003125    
     43200   1.0880245      0.3492363     -4.6597128e-05  64000          40             0.0003125    
     43300   0.88633604     0.28345224     1.8916932e-05  64000          40             0.0003125    
     43400   0.78729453     0.18537663     0.00015433486  64000          40             0.0003125    
     43500   0.97572522     0.42593537     8.3316127e-06  64000          40             0.0003125    
     43600   0.99537573     0.43036311     0.00012746898  64000          40             0.0003125    
     43700   0.89274981     0.26510102     2.8296201e-05  64000          40             0.0003125    
     43800   0.87308135     0.085565618    3.6080514e-05  64000          40             0.0003125    
     43900   1.1676784      0.13896278     0.00011951936  64000          40             0.0003125    
     44000   1.9027889      0.1179103      0.0003555474   64000          40             0.0003125    
     44100   1.3149012      0.21762555     0.00012657059  64000          40             0.0003125    
     44200   0.86449138     0.16268986     6.1679446e-05  64000          40             0.0003125    
     44300   0.87973216     0.23689434     2.9711947e-05  64000          40             0.0003125    
     44400   0.98687592     0.36387667     0.00027481835  64000          40             0.0003125    
     44500   0.97380892     0.43651174    -4.8155919e-05  64000          40             0.0003125    
     44600   1.4434521      0.58571303     6.5279428e-05  64000          40             0.0003125    
     44700   0.92237708     0.35933861    -1.1761418e-05  64000          40             0.0003125    
     44800   1.1880928      0.18731669     0.00010142398  64000          40             0.0003125    
     44900   0.71919819     0.24527293     5.1079166e-05  64000          40             0.0003125    
     45000   1.3097245      0.18165655     0.00017106897  64000          40             0.0003125    
     45100   1.2141994      0.3150163      0.00026269467  64000          40             0.0003125    
     45200   0.81518518     0.069844015    3.4371316e-05  64000          40             0.0003125    
     45300   0.86517386     0.35081523     3.7800157e-05  64000          40             0.0003125    
     45400   1.1770466      0.35774729     0.00016740454  64000          40             0.0003125    
     45500   0.86609953     0.48516544    -5.1505452e-06  64000          40             0.0003125    
     45600   1.3215306      0.34236154     0.00014404233  64000          40             0.0003125    
     45700   0.76119523     0.55134443    -6.0637554e-05  64000          40             0.0003125    
     45800   0.85016456     0.47010157    -3.1419986e-05  64000          40             0.0003125    
     45900   1.1171741      0.75061763    -4.8210462e-05  64000          40             0.0003125    
     46000   1.0814749      0.86403442    -7.8168381e-05  64000          40             0.0003125    
     46100   0.92842081     0.91601965    -0.00017034385  64000          40             0.0003125    
     46200   0.84167435     0.77863625     7.7321236e-05  64000          40             0.0003125    
     46300   0.94001686     0.45893109     1.276126e-05   64000          40             0.0003125    
     46400   0.81258401     0.68781659    -4.1682371e-05  64000          40             0.0003125    
     46500   1.1443175      0.85519203    -2.6578276e-05  64000          40             0.0003125    
     46600   1.2574458      0.70116607    -0.00010646066  64000          40             0.0003125    
     46700   1.4335989      0.49759241     0.00017594221  64000          40             0.0003125    
     46800   1.0667715      0.47245286    -2.9925202e-05  64000          40             0.0003125    
     46900   0.82291268     0.40485406    -0.00011199136  64000          40             0.0003125    
     47000   0.95064992     0.24341427    -2.7270587e-05  64000          40             0.0003125    
     47100   0.8975603      0.25390852    -1.7887634e-05  64000          40             0.0003125    
     47200   1.0151896      0.04833319    -1.7349576e-05  64000          40             0.0003125    
     47300   1.2218239      0.59718817     0.00046515296  64000          40             0.0003125    
     47400   0.77391839     0.49656889     1.8856331e-05  64000          40             0.0003125    
     47500   1.0681431      0.63391508    -9.5916063e-05  64000          40             0.0003125    
     47600   1.2290889      0.31410506     0.00017841125  64000          40             0.0003125    
     47700   1.2830103      0.083356306    0.00018088508  64000          40             0.0003125    
     47800   1.0495876     -0.018264989    7.841361e-05   64000          40             0.0003125    
     47900   0.83625498     0.24308989    -1.5336901e-05  64000          40             0.0003125    
     48000   1.1433138      0.33939604     0.00011696408  64000          40             0.0003125    
     48100   1.3155527      0.34702256     0.00012838532  64000          40             0.0003125    
     48200   1.1689876      0.40294772     0.00012473591  64000          40             0.0003125    
     48300   1.1224645      0.4095242      1.6958213e-05  64000          40             0.0003125    
     48400   0.81168077     0.39058919    -0.00015297142  64000          40             0.0003125    
     48500   1.3066514      0.49783217     1.0001603e-05  64000          40             0.0003125    
     48600   0.92632634     0.59505489    -0.00013047849  64000          40             0.0003125    
     48700   1.1925186      0.51105585    -3.5373734e-05  64000          40             0.0003125    
     48800   1.107694       0.21042554     1.6264977e-05  64000          40             0.0003125    
     48900   1.0211057      0.31819492    -3.7177285e-05  64000          40             0.0003125    
     49000   0.84465794     0.49307347    -8.3441612e-05  64000          40             0.0003125    
     49100   0.86885851     0.47661567    -8.1709664e-05  64000          40             0.0003125    
     49200   1.0063828      0.34251905     1.5583917e-05  64000          40             0.0003125    
     49300   1.1204049      0.23301011     0.00012264785  64000          40             0.0003125    
     49400   0.76016104     0.19706243    -7.7396774e-06  64000          40             0.0003125    
     49500   0.89311187     0.29181449    -7.4936541e-05  64000          40             0.0003125    
     49600   1.0913156      0.32922843     4.8188463e-05  64000          40             0.0003125    
     49700   1.0636129      0.52097636    -1.7899076e-05  64000          40             0.0003125    
     49800   0.93646412     0.14083244     0.00017006605  64000          40             0.0003125    
     49900   1.4804462     -0.015516132    0.00022091942  64000          40             0.0003125    
     50000   1.067559      -0.0099462958   0.00028655102  64000          40             0.0003125    
     50100   1.1028172      0.10177461     7.706054e-05   64000          40             0.0003125    
     50200   0.92269376     0.17117046     2.4064929e-05  64000          40             0.0003125    
     50300   1.0569981      0.39243071     3.9594335e-05  64000          40             0.0003125    
     50400   0.81763784     0.19921533    -0.00010352827  64000          40             0.0003125    
     50500   1.1203848      0.60221625    -8.2645286e-05  64000          40             0.0003125    
     50600   1.1539837      0.64274081     0.00016012506  64000          40             0.0003125    
     50700   1.2577553      0.42230943    -2.1813035e-05  64000          40             0.0003125    
     50800   1.1980247      0.52872517     0.00030038177  64000          40             0.0003125    
     50900   1.071607       0.42184542    -3.8118082e-05  64000          40             0.0003125    
     51000   1.2105009      0.2929676      9.1675607e-05  64000          40             0.0003125    
     51100   0.54878076     0.34508744    -0.00021582882  64000          40             0.0003125    
     51200   1.3723743      0.25010799     0.00019557464  64000          40             0.0003125    
     51300   0.92195716     0.29830195    -1.5653103e-05  64000          40             0.0003125    
     51400   1.2086055      0.56484468     5.2978169e-05  64000          40             0.0003125    
     51500   1.0363791      0.38618596    -3.4974437e-05  64000          40             0.0003125    
     51600   1.1296499      0.42224232    -6.0911309e-05  64000          40             0.0003125    
     51700   1.240652       0.15446578     3.0197969e-05  64000          40             0.0003125    
     51800   0.92145789     0.21216983    -2.2649403e-05  64000          40             0.0003125    
     51900   0.83059287     0.075179204   -9.1006525e-06  64000          40             0.0003125    
     52000   1.3789584      0.15222619     0.00014225846  64000          40             0.0003125    
     52100   1.0972588      0.44046139     8.428233e-05   64000          40             0.0003125    
     52200   0.87895031     0.35069153     4.1157404e-05  64000          40             0.0003125    
     52300   0.98474278     0.27501744     3.0544251e-05  64000          40             0.0003125    
     52400   0.69230768     0.43302574    -0.00012765592  64000          40             0.0003125    
     52500   1.1006172      0.59031395    -6.8829488e-05  64000          40             0.0003125    
     52600   1.1688669      0.80862655    -0.00012850167  64000          40             0.0003125    
     52700   1.5460856      0.89655345    -6.0274834e-05  64000          40             0.0003125    
     52800   1.1651066      0.50950646    -2.8513504e-05  64000          40             0.0003125    
     52900   0.94776742     0.74303992    -0.00023300824  64000          40             0.0003125    
     53000   1.0643186      0.53376733    -0.00015886788  64000          40             0.0003125    
     53100   1.0817269      0.58559746    -9.220975e-05   64000          40             0.0003125    
     53200   0.77200439     0.66854569    -0.00015558693  64000          40             0.0003125    
     53300   1.6252699      0.28929574     0.000241573    64000          40             0.0003125    
     53400   0.8986697      0.20766101     3.7526457e-05  64000          40             0.0003125    
     53500   0.94644561     0.13657342     2.3257306e-05  64000          40             0.0003125    
     53600   1.06218        0.092691154    0.00013466942  64000          40             0.0003125    
     53700   1.1580594      0.19076761     9.4213551e-05  64000          40             0.0003125    
     53800   0.91469232     0.25121466     0.00011365909  64000          40             0.0003125    
     53900   1.5218614      0.20755192     0.00027592201  64000          40             0.0003125    
     54000   1.0967322      0.31517035     9.2291996e-05  64000          40             0.0003125    
     54100   1.4104153      0.32742489     0.00027158869  64000          40             0.0003125    
     54200   1.0584578      0.46580209     2.4178828e-05  64000          40             0.0003125    
     54300   0.92450242     0.27552833     1.5846529e-05  64000          40             0.0003125    
     54400   0.97256585     0.39332477    -6.5221197e-05  64000          40             0.0003125    
     54500   1.0167765      0.60383508    -7.2535041e-05  64000          40             0.0003125    
     54600   1.3054583      0.78558906     4.1603051e-05  64000          40             0.0003125    
     54700   1.1923452      0.52485165     2.5700191e-05  64000          40             0.0003125    
     54800   1.0641299      0.57951725    -3.5254068e-06  64000          40             0.0003125    
     54900   0.89196369     0.74264794    -3.2243022e-05  64000          40             0.0003125    
     55000   1.0139725      0.68571921    -6.3541951e-05  64000          40             0.0003125    
     55100   1.2120382      0.72815615    -4.3332694e-06  64000          40             0.0003125    
     55200   1.1257188      0.636351      -2.8646908e-05  64000          40             0.0003125    
     55300   0.91344007     0.5220214     -5.9183623e-05  64000          40             0.0003125    
     55400   1.2238513      0.42100165     0.00011885563  64000          40             0.0003125    
     55500   0.61045769     0.42849822    -0.00012903141  64000          40             0.0003125    
     55600   1.0119001      0.43255878     3.760962e-05   64000          40             0.0003125    
     55700   1.2187042      0.3501901      0.00014120908  64000          40             0.0003125    
     55800   0.77855292     0.37472295    -4.0172452e-05  64000          40             0.0003125    
     55900   0.95076155     0.45224498     6.0632535e-05  64000          40             0.0003125    
     56000   1.2280687      0.46508723     2.5105116e-05  64000          40             0.0003125    
     56100   0.98329906     0.5767811     -5.8689179e-05  64000          40             0.0003125    
     56200   0.83075        0.32380405    -4.2123911e-05  64000          40             0.0003125    
     56300   1.03678        0.3019669      4.129576e-05   64000          40             0.0003125    
     56400   0.96737282     0.37957561    -3.7828007e-06  64000          40             0.0003125    
     56500   1.1668899      0.33233207     1.6731739e-05  64000          40             0.0003125    
     56600   0.79902473     0.32068324    -4.8437183e-05  64000          40             0.0003125    
     56700   0.93940163     0.31829666    -9.6636363e-05  64000          40             0.0003125    
     56800   0.96846992     0.42215756    -2.5863617e-05  64000          40             0.0003125    
     56900   0.93241783     0.32070512    -3.5064416e-05  64000          40             0.0003125    
     57000   1.2539303      0.31554781     3.6064671e-05  64000          40             0.0003125    
     57100   0.91558057     0.25373052    -5.0387064e-05  64000          40             0.0003125    
     57200   1.0159972      0.53884384    -6.4781877e-05  64000          40             0.0003125    
     57300   1.011297       0.51480149     6.0296973e-05  64000          40             0.0003125    
     57400   0.93801863     0.30698399    -5.0691385e-05  64000          40             0.0003125    
     57500   0.84456843     0.3045945     -0.00012930347  64000          40             0.0003125    
     57600   1.0535381      0.19415314    -5.6099663e-05  64000          40             0.0003125    
     57700   1.0973557      0.305725      -9.2122989e-05  64000          40             0.0003125    
     57800   1.2464525      0.35092567     0.00018561944  64000          40             0.0003125    
     57900   1.4219853      0.51074459     4.0836541e-05  64000          40             0.0003125    
     58000   1.1198219      0.6710345     -1.8259177e-05  64000          40             0.0003125    
     58100   0.85548524     0.72306897    -8.4712241e-05  64000          40             0.0003125    
     58200   1.3515208      0.63741337     3.8457301e-05  64000          40             0.0003125    
     58300   1.0601816      0.48114893    -3.0901426e-05  64000          40             0.0003125    
     58400   0.83624568     0.44567884     0.00030524792  64000          40             0.0003125    
     58500   1.2079928      0.32884213     0.00016778465  64000          40             0.0003125    
     58600   1.1803094      0.28179357     9.2094806e-05  64000          40             0.0003125    
     58700   0.7980072      0.22738496    -1.7717385e-05  64000          40             0.0003125    
     58800   1.1726906      0.26544941     0.00013040421  64000          40             0.0003125    
     58900   1.0180314      0.11412314     6.2748191e-05  64000          40             0.0003125    
     59000   0.91751313     0.22415199    -6.2534552e-05  64000          40             0.0003125    
     59100   1.0901071      0.16415498     0.00017998816  64000          40             0.0003125    
     59200   1.0806724      0.22938206     2.7178198e-05  64000          40             0.0003125    
     59300   1.1273295      0.1653539      7.4043517e-05  64000          40             0.0003125    
     59400   0.87757345     0.36233504    -8.2961701e-05  64000          40             0.0003125    
     59500   1.0809783      0.51022536    -9.9608928e-05  64000          40             0.0003125    
     59600   1.156121       0.4053991     -4.6799905e-05  64000          40             0.0003125    
     59700   1.0844848      0.43081841     0.00025648893  64000          40             0.0003125    
     59800   1.2857919      0.42757495    -1.0922241e-05  64000          40             0.0003125    
     59900   1.4162622      0.54816466     7.9308687e-05  64000          40             0.0003125    
     60000   1.132476       0.82894968    -0.00013804731  64000          40             0.0003125    
     60100   0.99159379     0.37691872    -0.00010157517  64000          40             0.0003125    
     60200   0.99393893     0.30071344     0.00018216675  64000          40             0.0003125    
     60300   0.86527919     0.28562576     9.1919854e-05  64000          40             0.0003125    
     60400   1.0019854      0.43485003    -4.3507835e-05  64000          40             0.0003125    
     60500   1.0935112      0.73739501    -0.00019062199  64000          40             0.0003125    
     60600   1.3421227      0.59092782    -5.3353011e-06  64000          40             0.0003125    
     60700   0.79652215     0.51717224    -5.1279347e-05  64000          40             0.0003125    
     60800   0.88359182     0.63144047    -0.00019566468  64000          40             0.0003125    
     60900   0.93719466     0.66177214    -0.00011579399  64000          40             0.0003125    
     61000   1.3915448      0.76637849     6.6901887e-05  64000          40             0.0003125    
     61100   1.0511905      0.67871937    -0.00018704109  64000          40             0.0003125    
     61200   0.94095402     0.53358452    -9.0595979e-05  64000          40             0.0003125    
     61300   1.1629692      0.68782289    -5.3197719e-05  64000          40             0.0003125    
     61400   0.63139043     0.50812195    -0.00023951089  64000          40             0.0003125    
     61500   0.9841706      0.51968454    -7.1023498e-05  64000          40             0.0003125    
     61600   1.0518381      0.7526065     -8.3647903e-05  64000          40             0.0003125    
     61700   0.79923179     0.80041293    -0.00016674985  64000          40             0.0003125    
     61800   1.2320273      0.63313799    -4.0685354e-05  64000          40             0.0003125    
     61900   0.94213309     0.63339658    -0.00018010238  64000          40             0.0003125    
     62000   1.1062982      0.73690802     5.0843288e-06  64000          40             0.0003125    
     62100   1.0579806      0.74785147    -0.00011255832  64000          40             0.0003125    
     62200   1.4372783      0.74146172     7.6368703e-06  64000          40             0.0003125    
     62300   0.96575961     0.41167559     3.53996e-05    64000          40             0.0003125    
     62400   0.89360165     0.6079809      6.192046e-06   64000          40             0.0003125    
     62500   0.56485362     0.78517829    -0.00016965443  64000          40             0.0003125    
     62600   1.2458186      0.90205844    -5.424029e-05   64000          40             0.0003125    
     62700   0.85869377     0.71098015    -0.00010160252  64000          40             0.0003125    
     62800   0.99720604     0.60443917     1.2522827e-06  64000          40             0.0003125    
     62900   0.99326583     0.77570694    -5.9208226e-05  64000          40             0.0003125    
     63000   0.87001086     0.80444663    -0.00015251318  64000          40             0.0003125    
     63100   0.97867368     0.62050181    -5.5883989e-05  64000          40             0.0003125    
     63200   1.1497137      0.70517938    -3.248486e-05   64000          40             0.0003125    
     63300   1.2534223      0.54920759    -5.3804329e-07  64000          40             0.0003125    
     63400   1.2366631      0.8351989      0.00040393329  64000          40             0.0003125    
     63500   1.0006744      0.55028394    -2.3139285e-05  64000          40             0.0003125    
     63600   1.170211       0.94524595    -6.528157e-05   64000          40             0.0003125    
     63700   1.3185857      1.047928       7.853107e-05   64000          40             0.0003125    
     63800   1.2364113      0.93401574    -4.5118945e-05  64000          40             0.0003125    
     63900   1.0242487      0.78684418    -2.6091927e-05  64000          40             0.0003125    
     64000   1.2737209      1.1473942     -9.62509e-05    64000          40             0.0003125    
     64100   1.0453585      1.0326662     -0.00010147605  64000          40             0.0003125    
     64200   0.93969675     1.130064      -0.00015369549  64000          40             0.0003125    
     64300   0.74835959     1.0797649     -0.00016936138  64000          40             0.0003125    
     64400   0.9017216      1.1616599     -0.00015626632  64000          40             0.0003125    
     64500   1.3229582      1.0904088     -1.2554516e-05  64000          40             0.0003125    
     64600   1.2673945      0.81453622     4.2495195e-05  64000          40             0.0003125    
     64700   1.3487338      0.83105293     6.5991395e-05  64000          40             0.0003125    
     64800   0.92665567     0.75771803    -3.276538e-05   64000          40             0.0003125    
     64900   0.71493215     0.91094284    -0.00014173715  64000          40             0.0003125    
     65000   0.95588309     0.76473269    -4.3282135e-05  64000          40             0.0003125    
     65100   0.88933447     0.70664286    -5.7921709e-05  64000          40             0.0003125    
     65200   1.3174012      0.84801462     5.4025145e-05  64000          40             0.0003125    
     65300   1.2951897      0.69274017     6.1047645e-05  64000          40             0.0003125    
     65400   1.2284589      0.77820573     2.2621487e-05  64000          40             0.0003125    
     65500   1.2107021      0.65763421     5.4490102e-05  64000          40             0.0003125    
     65600   0.98083471     0.86916225    -5.7709075e-05  64000          40             0.0003125    
     65700   1.1576274      0.73992858     2.0008087e-05  64000          40             0.0003125    
     65800   1.050947       0.77244231    -3.5884502e-05  64000          40             0.0003125    
     65900   1.1266415      0.70516439     1.2584233e-05  64000          40             0.0003125    
     66000   1.153659       0.77974708     2.5960462e-05  64000          40             0.0003125    
     66100   1.2151208      0.85276302     1.9168273e-05  64000          40             0.0003125    
     66200   1.0533056      0.66003188     3.3740979e-05  64000          40             0.0003125    
     66300   1.0605939      0.93812754    -4.2105281e-05  64000          40             0.0003125    
     66400   1.1567609      0.7344415      4.0934886e-05  64000          40             0.0003125    
     66500   1.0404263      0.99371136    -7.6906754e-05  64000          40             0.0003125    
     66600   0.937294       1.0659712     -0.00013653946  64000          40             0.0003125    
     66700   0.94517525     1.4619527     -0.00025651944  64000          40             0.0003125    
     66800   1.023494       1.0063895     -8.8095707e-05  64000          40             0.0003125    
     66900   0.71924573     1.2677424     -0.00024204712  64000          40             0.0003125    
     67000   1.2852551      1.0978315     -3.055217e-05   64000          40             0.0003125    
     67100   0.99435965     1.2141349     -0.00015095273  64000          40             0.0003125    
     67200   0.99781117     1.1690219     -0.00013886981  64000          40             0.0003125    
     67300   1.1750171      1.2204377     -9.625201e-05   64000          40             0.0003125    
     67400   0.85258471     1.2807442     -0.00021218651  64000          40             0.0003125    
     67500   1.0423033      1.23567       -0.00014871577  64000          40             0.0003125    
     67600   1.1759245      1.0504705     -5.930662e-05   64000          40             0.0003125    
     67700   1.0894093      1.134463      -0.00011549937  64000          40             0.0003125    
     67800   1.1394265      1.1543247     -9.9789543e-05  64000          40             0.0003125    
     67900   0.88784885     1.2189812     -0.00020775523  64000          40             0.0003125    
     68000   0.83054099     1.3680087     -0.00023491383  64000          40             0.0003125    
     68100   1.4253406      1.3076661     -4.3575737e-05  64000          40             0.0003125    
     68200   1.1363795      0.98124361    -5.0029906e-05  64000          40             0.0003125    
     68300   0.98582091     0.73017423    -1.1658025e-05  64000          40             0.0003125    
     68400   0.89685181     0.85982002    -6.4063675e-05  64000          40             0.0003125    
     68500   1.0041742      1.045936      -9.0978724e-05  64000          40             0.0003125    
     68600   0.85309295     0.63822684    -1.5914272e-05  64000          40             0.0003125    
     68700   0.7095277      0.74950743    -8.6777875e-05  64000          40             0.0003125    
     68800   0.93691637     0.67141866     1.5022766e-06  64000          40             0.0003125    
     68900   0.89750792     0.55041865     3.9320722e-05  64000          40             0.0003125    
     69000   0.96083205     0.60226458     2.1867803e-05  64000          40             0.0003125    
     69100   1.2741877      0.72012385     6.4869259e-05  64000          40             0.0003125    
     69200   0.88165598     0.70539685    -4.3982056e-05  64000          40             0.0003125    
     69300   1.289792       0.88801583     3.419128e-05   64000          40             0.0003125    
     69400   1.079368       0.97142626    -5.3664794e-05  64000          40             0.0003125    
     69500   0.7397822      1.0570494     -0.00019129     64000          40             0.0003125    
     69600   0.86414984     0.70683168    -3.6062786e-05  64000          40             0.0003125    
     69700   1.1116989      0.56161871     8.4525083e-05  64000          40             0.0003125    
     69800   1.1078434      0.63238166     6.6246921e-05  64000          40             0.0003125    
     69900   0.84089946     0.85987115    -9.8095166e-05  64000          40             0.0003125    
     70000   1.2943881      0.97272479    -2.0555985e-05  64000          40             0.0003125    
     70100   1.0650624      1.1905029     -0.00016513903  64000          40             0.0003125    
     70200   0.8566994      1.0919047     -0.00016970649  64000          40             0.0003125    
     70300   1.1299788      1.2656227     -0.00011535473  64000          40             0.0003125    
     70400   1.0530915      1.233359      -0.00012500332  64000          40             0.0003125    
     70500   1.2368848      1.3138713     -0.00010700726  64000          40             0.0003125    
     70600   1.2162998      1.3924379     -0.0001430251   64000          40             0.0003125    
     70700   1.3650287      1.1856528     -3.6556158e-05  64000          40             0.0003125    
     70800   1.0730689      1.1282831     -0.0001160648   64000          40             0.0003125    
     70900   1.1134637      1.2432716     -0.00014239742  64000          40             0.0003125    
     71000   0.99226673     1.0960848     -0.0001272104   64000          40             0.0003125    
     71100   0.98409775     1.1205567     -0.00013024359  64000          40             0.0003125    
     71200   1.0351242      0.99812046    -9.6468859e-05  64000          40             0.0003125    
     71300   0.97474285     0.89489622    -9.1694262e-05  64000          40             0.0003125    
     71400   1.3646146      1.0238845     -2.2298405e-05  64000          40             0.0003125    
     71500   0.7645177      1.2179735     -0.00025581431  64000          40             0.0003125    
     71600   0.98394142     1.0632485     -0.00013347381  64000          40             0.0003125    
     71700   0.92859952     1.3448123     -0.0002127195   64000          40             0.0003125    
     71800   1.0598639      1.3600769     -0.00019362159  64000          40             0.0003125    
     71900   0.94486285     1.2902229     -0.00022933731  64000          40             0.0003125    
     72000   0.99162007     1.3597102     -0.0001797514   64000          40             0.0003125    
     72100   1.1660356      1.0377252     -5.2966925e-05  64000          40             0.0003125    
     72200   0.92433881     0.75680447    -9.8325849e-05  64000          40             0.0003125    
     72300   1.2100582      0.90378731    -7.4557913e-05  64000          40             0.0003125    
     72400   0.99222715     1.0566289     -0.00017853198  64000          40             0.0003125    
     72500   1.0855559      1.2079708     -3.5716263e-05  64000          40             0.0003125    
     72600   1.2656833      1.1100285     -8.2608666e-05  64000          40             0.0003125    
     72700   1.2020574      0.78811014    -3.0389911e-05  64000          40             0.0003125    
     72800   0.90763457     0.94050688    -0.00013397343  64000          40             0.0003125    
     72900   0.93463283     0.81774457    -0.00012644102  64000          40             0.0003125    
     73000   0.92727709     0.51293796    -6.2245555e-05  64000          40             0.0003125    
     73100   0.9044053      0.41633121    -1.5867789e-06  64000          40             0.0003125    
     73200   1.0080801      0.56791786    -1.5769148e-05  64000          40             0.0003125    
     73300   0.77316874     0.58544286     7.5949602e-06  64000          40             0.0003125    
     73400   0.87099259     0.46962673    -9.9362259e-05  64000          40             0.0003125    
     73500   1.4336624      0.63194308     3.2295235e-05  64000          40             0.0003125    
     73600   1.2396717      0.83098969    -5.8959516e-06  64000          40             0.0003125    
     73700   0.94834307     0.9372436      0.00019830507  64000          40             0.0003125    
     73800   0.97853969     0.84464881     0.00013698283  64000          40             0.0003125    
     73900   1.0607066      0.8660112     -7.9724437e-05  64000          40             0.0003125    
     74000   1.1145009      0.8609814     -9.6222575e-05  64000          40             0.0003125    
     74100   0.84314687     0.78799214    -0.00016438508  64000          40             0.0003125    
     74200   0.90442405     1.0021881     -0.00029437211  64000          40             0.0003125    
     74300   1.3657298      0.96370081    -3.2050065e-05  64000          40             0.0003125    
     74400   0.83073144     0.6892102     -2.1827241e-05  64000          40             0.0003125    
     74500   0.90816742     0.49713608    -9.7644505e-05  64000          40             0.0003125    
[...]
     81900   0.67693768    -0.17605032    -3.7953027e-05  64000          40             0.0003125    
     82000   1.1120187     -0.16172404    -4.298713e-05   64000          40             0.0003125    
     82100   0.86029762    -0.15065385    -0.00016893136  64000          40             0.0003125    
     82200   1.2381286      0.092130926    5.8004625e-05  64000          40             0.0003125    
     82300   1.1861053      0.22947806     0.00029761615  64000          40             0.0003125    
     82400   1.3443565      0.17805077     7.9756073e-05  64000          40             0.0003125    
     82500   1.0151769      0.1935649     -0.0001460132   64000          40             0.0003125    
     82600   0.9553233      0.099806583    0.00024901612  64000          40             0.0003125    
     82700   0.76077263     0.36867028    -0.00019101728  64000          40             0.0003125    
     82800   1.1450006      0.38363049    -6.9684289e-05  64000          40             0.0003125    
     82900   0.92791914     0.41533784    -6.5239567e-05  64000          40             0.0003125    
     83000   0.9927223      0.20751267    -5.7838039e-05  64000          40             0.0003125    
     83100   0.8153952      0.41449855    -0.00019736174  64000          40             0.0003125    
     83200   0.91068623     0.42655519    -0.00012784173  64000          40             0.0003125    
     83300   1.0625641      0.13361254     4.8495735e-05  64000          40             0.0003125    
     83400   0.90829467     0.28168339    -0.00011731983  64000          40             0.0003125    
     83500   0.97144032     0.073397858    0.00041464613  64000          40             0.0003125    
     83600   1.1156019      0.055897403    0.00028176755  64000          40             0.0003125    
     83700   1.0618288      0.077204995    0.00028239898  64000          40             0.0003125    
     83800   1.0013655      0.044052556    0.00014181918  64000          40             0.0003125    
     83900   1.0005072      0.19087191    -1.1687234e-05  64000          40             0.0003125    
     84000   1.0771214      0.32296111     4.2825003e-05  64000          40             0.0003125    
     84100   1.1498738      0.20904584    -3.5318297e-05  64000          40             0.0003125    
     84200   1.140907       0.23480812     0.00011134287  64000          40             0.0003125    
     84300   1.197692       0.014328994    0.00010074832  64000          40             0.0003125    
     84400   0.93915226     0.23914718    -1.8361413e-05  64000          40             0.0003125    
     84500   0.72043715     0.39631817    -0.00014541733  64000          40             0.0003125    
     84600   1.1968863      0.28022801     0.00023587634  64000          40             0.0003125    
     84700   1.1861715      0.34481789    -8.2433742e-05  64000          40             0.0003125    
     84800   1.1121488      0.44443092     0.00011490995  64000          40             0.0003125    
     84900   1.0615451      0.22820686     0.000195608    64000          40             0.0003125    
     85000   1.2478667      0.32925387     0.00021493237  64000          40             0.0003125    
     85100   1.1108888      0.59516354    -5.0838843e-05  64000          40             0.0003125    
     85200   1.0944748      0.61341536    -9.9941991e-05  64000          40             0.0003125    
     85300   1.3063288      0.96264246    -6.167675e-05   64000          40             0.0003125    
     85400   1.0478243      0.77136499    -0.00015945069  64000          40             0.0003125    
     85500   1.1863922      0.91152729     0.00014805071  64000          40             0.0003125    
     85600   1.0198252      0.96709934    -0.00011574488  64000          40             0.0003125    
     85700   1.2316733      1.0189873      5.6753217e-07  64000          40             0.0003125    
     85800   1.0617669      0.84732907    -0.00018810395  64000          40             0.0003125    
     85900   1.2820869      0.64955837     0.00021846701  64000          40             0.0003125    
     86000   1.2656778      0.70430757     9.1882113e-05  64000          40             0.0003125    
     86100   0.85459762     0.62261862    -0.00014381326  64000          40             0.0003125    
     86200   1.0999814      0.48964056    -8.9910811e-06  64000          40             0.0003125    
     86300   0.92283733     0.45710758    -0.0001409144   64000          40             0.0003125    
     86400   1.2800163      0.71203735    -0.00010124263  64000          40             0.0003125    
     86500   1.2273673      0.5953391     -3.6718813e-06  64000          40             0.0003125    
     86600   1.5320295      0.41265055     0.00011445923  64000          40             0.0003125    
     86700   0.79307767     0.47118027    -3.2201324e-05  64000          40             0.0003125    
     86800   0.97895332     0.72954291     0.00031716621  64000          40             0.0003125    
     86900   1.4523759      0.71000359    -9.74281e-05    64000          40             0.0003125    
     87000   1.0012897      0.1937533     -3.7316309e-05  64000          40             0.0003125    
     87100   1.1968319      0.017427668    0.00013286363  64000          40             0.0003125    
     87200   0.99618474     0.21834658    -1.4480536e-05  64000          40             0.0003125    
     87300   1.1831667      0.28864111     1.424368e-06   64000          40             0.0003125    
     87400   1.0468602      0.35252077     2.76865e-05    64000          40             0.0003125    
     87500   0.91518801     0.53418938     0.00015737375  64000          40             0.0003125    
     87600   0.79939484     0.73739765    -0.00011181195  64000          40             0.0003125    
     87700   0.95346321     0.48580683     5.6646425e-05  64000          40             0.0003125    
     87800   0.84465496     0.48145679    -6.765335e-05   64000          40             0.0003125    
     87900   0.87216739     0.56074645    -9.5491009e-05  64000          40             0.0003125    
     88000   1.2218092      0.37052858     4.7960409e-06  64000          40             0.0003125    
     88100   1.071073       0.23897548    -4.6276021e-06  64000          40             0.0003125    
     88200   1.0985823      0.45655082     0.00011313513  64000          40             0.0003125    
     88300   1.2284098      0.37836419     2.7088153e-05  64000          40             0.0003125    
     88400   1.0486456      0.55321832     0.00025751893  64000          40             0.0003125    
     88500   1.1992995      0.68636355    -9.2758733e-06  64000          40             0.0003125    
     88600   0.63302425     0.61525242    -0.00016286219  64000          40             0.0003125    
     88700   1.0167858      0.73940928    -9.0185049e-05  64000          40             0.0003125    
     88800   1.0402596      1.0635175     -0.00018117432  64000          40             0.0003125    
     88900   1.0894923      0.69609013    -7.1092167e-05  64000          40             0.0003125    
     89000   0.55826945     0.8861051     -2.3918952e-05  64000          40             0.0003125    
     89100   0.9402574      0.91042285    -0.00018413359  64000          40             0.0003125    
     89200   0.73722273     0.58462275    -0.0001034011   64000          40             0.0003125    
     89300   1.3879423      0.48665016    -7.0838424e-06  64000          40             0.0003125    
     89400   0.91273376     0.86864222    -0.00017849546  64000          40             0.0003125    
     89500   0.95448715     0.81416316    -0.00019964761  64000          40             0.0003125    
     89600   0.88785972     0.57867224    -0.00010478497  64000          40             0.0003125    
     89700   0.95120815     0.60747213     6.2583568e-05  64000          40             0.0003125    
     89800   0.91645988     0.47531301    -0.00010911144  64000          40             0.0003125    
     89900   1.1549189      0.40476595    -2.2015186e-05  64000          40             0.0003125    
     90000   1.3748219      0.40809819     8.3649456e-05  64000          40             0.0003125    
     90100   0.90458097     0.54616075    -0.00014458888  64000          40             0.0003125    
     90200   0.78647727     0.71406526    -3.7469029e-05  64000          40             0.0003125    
     90300   1.0851511      0.5165911     -0.00010146788  64000          40             0.0003125    
     90400   0.94876184     0.76718223    -0.00011926312  64000          40             0.0003125    
     90500   1.5443021      0.55886725     7.0219762e-05  64000          40             0.0003125    
     90600   0.69846006     0.3818718     -0.00010518113  64000          40             0.0003125    
     90700   1.0630062      0.46296683    -2.3117803e-05  64000          40             0.0003125    
     90800   0.89093478     0.61294089    -2.5620213e-05  64000          40             0.0003125    
     90900   1.4611928      0.42671031     3.9689316e-05  64000          40             0.0003125    
     91000   1.5962102      0.56998526     1.9186815e-05  64000          40             0.0003125    
     91100   0.86618128     0.84368036    -0.00024843227  64000          40             0.0003125    
     91200   0.87447317     0.58368292     6.4502768e-05  64000          40             0.0003125    
     91300   0.82384097     0.35993112     0.00015062176  64000          40             0.0003125    
     91400   1.234819       0.12487062     0.0002356542   64000          40             0.0003125    
     91500   0.91406884     0.34269332    -0.00013361056  64000          40             0.0003125    
     91600   1.048845       0.19735014    -5.9709351e-05  64000          40             0.0003125    
     91700   1.0331584      0.51735429    -4.5901674e-05  64000          40             0.0003125    
     91800   1.1996658      0.55267439    -4.8557191e-05  64000          40             0.0003125    
     91900   1.1382025      0.26023397    -4.7204004e-05  64000          40             0.0003125    
     92000   0.7137055      0.43127201    -0.00017545603  64000          40             0.0003125    
     92100   1.1019292      0.44474819    -3.4986469e-05  64000          40             0.0003125    
     92200   1.3702825      0.51166874    -2.8076499e-05  64000          40             0.0003125    
     92300   1.2940085      0.47131261     0.00016715677  64000          40             0.0003125    
     92400   1.6524433      0.34960076     0.00022474922  64000          40             0.0003125    
     92500   1.0082869      0.61701342     0.00020948552  64000          40             0.0003125    
     92600   1.4169758      0.50910174     9.5790612e-05  64000          40             0.0003125    
     92700   0.82079391     0.2898038      7.9833229e-05  64000          40             0.0003125    
     92800   1.1662074     -0.22716806     0.00019220774  64000          40             0.0003125    
     92900   1.0241526      0.18705913     0.00031778363  64000          40             0.0003125    
     93000   1.076702       0.23482401     0.00026567563  64000          40             0.0003125    
     93100   0.96952831     0.069668517   -6.4056925e-05  64000          40             0.0003125    
     93200   0.66323968     0.10652602    -6.7857203e-05  64000          40             0.0003125    
     93300   0.60402748     0.064695419   -2.2427721e-05  64000          40             0.0003125    
     93400   1.1950197      0.25524599     0.0006264435   64000          40             0.0003125    
     93500   1.1688252      0.10114249     5.7214482e-05  64000          40             0.0003125    
     93600   0.86375518     0.31131682    -7.1524412e-05  64000          40             0.0003125    
     93700   0.87735745     0.3063192     -9.16473e-05    64000          40             0.0003125    
     93800   0.90325451     0.42456289    -3.9643348e-06  64000          40             0.0003125    
     93900   0.66799937     0.42678048    -0.00017396999  64000          40             0.0003125    
     94000   1.0666138      0.27677654     0.00022761069  64000          40             0.0003125    
     94100   0.80157584     0.19796899     5.7119443e-05  64000          40             0.0003125    
     94200   0.72843384    -0.062542665    0.00012903345  64000          40             0.0003125    
     94300   0.99595545     0.087655538    7.9366428e-05  64000          40             0.0003125    
     94400   0.99534479     0.41910293    -5.4771864e-05  64000          40             0.0003125    
     94500   1.0486347      0.5257182     -0.00011743745  64000          40             0.0003125    
     94600   1.2207682      0.49572217     0.00017689839  64000          40             0.0003125    
     94700   1.2072285      0.47325871     6.1834292e-05  64000          40             0.0003125    
     94800   0.95171851     0.3364861      4.9053441e-05  64000          40             0.0003125    
     94900   1.1847541      0.32815993     7.616431e-05   64000          40             0.0003125    
     95000   1.2762465      0.29005219     8.8306817e-05  64000          40             0.0003125    
     95100   1.0628918      0.31768375     0.00014310301  64000          40             0.0003125    
     95200   0.84135972     0.26392063     4.1185137e-05  64000          40             0.0003125    
     95300   0.84804062     0.42257769     4.5139976e-05  64000          40             0.0003125    
     95400   1.1561573      0.7398598     -7.1463831e-05  64000          40             0.0003125    
     95500   0.84811615     0.5105542     -0.00015326722  64000          40             0.0003125    
     95600   1.1840477      0.3020545      2.617924e-05   64000          40             0.0003125    
     95700   0.89369091     0.13104875     6.0720384e-05  64000          40             0.0003125    
     95800   1.2845584      0.34628619     4.0691464e-05  64000          40             0.0003125    
     95900   1.4680188      0.20011597     0.00010715405  64000          40             0.0003125    
     96000   1.0805475      0.11013048    -6.2632962e-06  64000          40             0.0003125    
     96100   1.0173959      0.18978966    -3.8149771e-05  64000          40             0.0003125    
     96200   0.76187112     0.20893593     3.0970169e-06  64000          40             0.0003125    
     96300   1.0512077      0.050761117   -4.5265656e-05  64000          40             0.0003125    
     96400   0.91304029     0.39695406    -0.00013426303  64000          40             0.0003125    
     96500   1.0086109      0.28490947     3.6765192e-06  64000          40             0.0003125    
     96600   1.2187387      0.36889765     0.00011780656  64000          40             0.0003125    
     96700   0.82868166     0.33657827    -9.5633371e-05  64000          40             0.0003125    
     96800   1.075546       0.099655662    4.735032e-05   64000          40             0.0003125    
     96900   0.93010519     0.19872213    -6.7589912e-05  64000          40             0.0003125    
     97000   1.1965605      0.059908656    0.00023749742  64000          40             0.0003125    
     97100   1.208908       0.068057241    5.0833883e-05  64000          40             0.0003125    
     97200   1.1880019      0.27388579    -5.9171914e-05  64000          40             0.0003125    
     97300   0.95339496     0.24891402    -8.4711328e-05  64000          40             0.0003125    
     97400   0.66937395     0.2551387     -5.9190859e-05  64000          40             0.0003125    
     97500   0.93208708     0.053877079    0.00015822341  64000          40             0.0003125    
     97600   1.1405324     -0.18623206     0.00017828244  64000          40             0.0003125    
     97700   1.0047416      0.022547031   -0.00017585158  64000          40             0.0003125    
     97800   1.0522344      0.13270231    -2.8389322e-06  64000          40             0.0003125    
     97900   1.1160874      0.050824943    0.00020559724  64000          40             0.0003125    
     98000   1.1343201      0.017088564   -6.2503527e-05  64000          40             0.0003125    
     98100   0.85637312     0.12855775    -9.4988301e-05  64000          40             0.0003125    
     98200   0.98897181     0.16480587     4.8359523e-05  64000          40             0.0003125    
     98300   0.94204083    -0.0025106843   1.583329e-05   64000          40             0.0003125    
     98400   1.0373547     -0.044400129    0.00020626859  64000          40             0.0003125    
     98500   1.1807203     -0.40698155     0.00010626887  64000          40             0.0003125    
     98600   0.98147999    -0.26318162     5.9695751e-05  64000          40             0.0003125    
     98700   0.88246076    -0.037551262    3.8903938e-05  64000          40             0.0003125    
     98800   1.0974733     -0.1154652     -0.00015767261  64000          40             0.0003125    
     98900   1.0136235     -0.034763787   -0.00013556892  64000          40             0.0003125    
     99000   1.0991347     -0.11051828    -2.1307427e-05  64000          40             0.0003125    
     99100   1.1786194      0.09935131     0.0002487284   64000          40             0.0003125    
     99200   0.86924941     0.12789001    -2.6554374e-05  64000          40             0.0003125    
     99300   1.3252465      0.13442403    -2.7949409e-05  64000          40             0.0003125    
     99400   1.1608148     -0.087552008   -3.6436945e-05  64000          40             0.0003125    
     99500   1.1498118      0.084826642    0.00010882603  64000          40             0.0003125    
     99600   0.83928893     0.1882911     -0.00013615406  64000          40             0.0003125    
     99700   0.93747247     0.37824329    -0.00020176071  64000          40             0.0003125    
     99800   1.3651471      0.14250336     0.00016772928  64000          40             0.0003125    
     99900   1.2170215      0.1225483     -0.00011852863  64000          40             0.0003125    
    100000   1.0428105     -0.13616003    -0.00014365528  64000          40             0.0003125    
    100100   0.99964181     0.12565057     0.00015274843  64000          40             0.0003125    
    100109   1.3059894      0.0051635499  -6.0634404e-05  64000          40             0.0003125    
Loop time of 0.714153 on 16 procs for 100000 steps with 20 atoms

Performance: 60491251.978 tau/day, 140026.046 timesteps/s
1569.7% CPU use with 1 MPI tasks x 16 OpenMP threads

MPI task timing breakdown:
Section |  min time  |  avg time  |  max time  |%varavg| %total
---------------------------------------------------------------
Pair    | 0.035371   | 0.035371   | 0.035371   |   0.0 |  4.95
Bond    | 0.032141   | 0.032141   | 0.032141   |   0.0 |  4.50
Neigh   | 0.25663    | 0.25663    | 0.25663    |   0.0 | 35.94
Comm    | 0.022546   | 0.022546   | 0.022546   |   0.0 |  3.16
Output  | 0.040524   | 0.040524   | 0.040524   |   0.0 |  5.67
Modify  | 0.13504    | 0.13504    | 0.13504    |   0.0 | 18.91
Other   |            | 0.1919     |            |       | 26.87

Nlocal:             20 ave          20 max          20 min
Histogram: 1 0 0 0 0 0 0 0 0 0
Nghost:              0 ave           0 max           0 min
Histogram: 1 0 0 0 0 0 0 0 0 0
Neighs:             72 ave          72 max          72 min
Histogram: 1 0 0 0 0 0 0 0 0 0

Total # of neighbors = 72
Ave neighs/atom = 3.6
Ave special neighs/atom = 5.4
Neighbor list builds = 8690
Dangerous builds = 0
Total wall time: 0:00:00
