

10 atoms
9 bonds
1 atom types
1 bond types

-0.5 15.0 xlo xhi
-0.5 15.0 ylo yhi
-0.5 15.0 zlo zhi

Masses

1 1

Pair Coeffs # lj/cut

1 1 1

Bond Coeffs

1 1 1

Atoms

1 1 1 0.5 0.5 0.5
2 1 1 1.5 1.5 1.5
3 1 1 2.5 2.5 2.5
4 1 1 3.5 3.5 3.5
5 1 1 4.5 4.5 4.5
6 1 1 5.5 5.5 5.5
7 1 1 6.5 6.5 6.5
8 1 1 7.5 7.5 7.5
9 1 1 8.5 8.5 8.5
10 1 1 9.5 9.5 9.5
