ITEM: TIMESTEP
0
ITEM: NUMBER OF ATOMS
66
ITEM: BOX BOUNDS pp pp pp
-2.3135925306831645e+01 2.3135925306831645e+01
-8.6759719900618801e+00 8.6759719900618801e+00
-8.6759719900618801e+00 8.6759719900618801e+00
ITEM: ATOMS id type xs ys zs
21 5 0.465959 0.294779 0.367566
20 3 0.474829 0.342094 0.402543
16 4 0.46222 0.464939 0.42282
18 5 0.440538 0.407147 0.342008
17 3 0.451353 0.404357 0.404994
19 5 0.433692 0.383944 0.446167
23 4 0.480305 0.31648 0.46187
22 5 0.493303 0.370808 0.36947
65 6 0.555042 0.434346 0.417299
66 7 0.537268 0.463043 0.412252
62 3 0.573253 0.469962 0.389971
64 5 0.593355 0.432579 0.389377
63 5 0.564596 0.494921 0.334394
24 3 0.502021 0.328218 0.487825
26 5 0.511319 0.39036 0.484931
25 5 0.51838 0.281027 0.466632
15 5 0.423127 0.502431 0.427175
13 3 0.446611 0.510015 0.442751
11 5 0.479204 0.601931 0.443591
8 5 0.485385 0.679909 0.352697
1 3 0.498369 0.587756 0.272909
3 5 0.496144 0.578807 0.211227
6 3 0.473314 0.633063 0.313921
7 5 0.460614 0.666145 0.26684
9 4 0.455388 0.593381 0.341358
10 3 0.456636 0.591374 0.413306
12 5 0.443159 0.639929 0.435137
5 7 0.481065 0.507469 0.315625
4 6 0.500006 0.527035 0.3015
2 5 0.519923 0.619385 0.283491
60 5 0.600109 0.570775 0.417603
59 3 0.580421 0.539783 0.441137
55 3 0.565469 0.646533 0.464562
57 5 0.570046 0.67971 0.410943
58 4 0.561023 0.587036 0.438974
61 5 0.585766 0.51285 0.498036
54 5 0.520986 0.683899 0.464916
28 5 0.489555 0.251526 0.582362
30 4 0.489305 0.364393 0.608954
32 5 0.455019 0.336012 0.590296
31 3 0.467767 0.350454 0.642011
27 3 0.499475 0.310765 0.576106
35 5 0.430872 0.407171 0.683676
34 3 0.455189 0.424132 0.67357
36 5 0.450379 0.461489 0.624787
33 5 0.465472 0.29996 0.683179
37 4 0.470144 0.446467 0.723533
29 5 0.52245 0.308575 0.601903
46 5 0.511939 0.493009 0.629582
42 5 0.509124 0.496504 0.778107
14 5 0.451914 0.502778 0.506738
39 5 0.456004 0.503909 0.802778
40 5 0.454062 0.55507 0.702735
38 3 0.466331 0.512893 0.74167
49 5 0.49489 0.62426 0.571638
41 3 0.49584 0.547684 0.755738
43 5 0.492583 0.586756 0.808617
56 5 0.583071 0.655089 0.505919
52 3 0.538505 0.678517 0.511743
53 5 0.544928 0.739423 0.525906
50 5 0.515499 0.548406 0.533182
51 4 0.536711 0.642896 0.57189
48 3 0.517691 0.597828 0.576501
45 3 0.518002 0.552489 0.65109
44 4 0.504097 0.585314 0.700329
47 5 0.541894 0.552455 0.669207
ITEM: TIMESTEP
100
ITEM: NUMBER OF ATOMS
66
ITEM: BOX BOUNDS pp pp pp
-2.3147921313522691e+01 2.3147921313522691e+01
-8.6759719900618801e+00 8.6759719900618801e+00
-8.6759719900618801e+00 8.6759719900618801e+00
ITEM: ATOMS id type xs ys zs
21 5 0.459994 0.303402 0.362688
20 3 0.472 0.350304 0.397307
16 4 0.457782 0.469675 0.422115
18 5 0.439411 0.414049 0.342406
17 3 0.448057 0.412217 0.400932
19 5 0.429703 0.387389 0.43844
23 4 0.478247 0.323081 0.455583
22 5 0.490368 0.368254 0.357667
65 6 0.549254 0.44091 0.400288
66 7 0.536449 0.472303 0.368284
62 3 0.573145 0.455684 0.398076
64 5 0.587029 0.405174 0.419581
63 5 0.578497 0.476233 0.336976
24 3 0.499973 0.349909 0.484145
26 5 0.503559 0.414849 0.485825
25 5 0.517374 0.319405 0.451831
15 5 0.417915 0.522517 0.428513
13 3 0.442327 0.520488 0.44172
11 5 0.473784 0.608431 0.438093
8 5 0.478069 0.677351 0.29675
1 3 0.505496 0.578249 0.326094
3 5 0.524352 0.603458 0.288773
6 3 0.474555 0.614403 0.303938
7 5 0.471116 0.590795 0.242388
9 4 0.454978 0.589685 0.338334
10 3 0.453179 0.599355 0.404641
12 5 0.436893 0.64821 0.423414
5 7 0.488245 0.493725 0.355876
4 6 0.503971 0.512219 0.323388
2 5 0.513954 0.585195 0.386328
60 5 0.602363 0.54768 0.438954
59 3 0.579119 0.527885 0.450557
55 3 0.566506 0.63402 0.47467
57 5 0.573276 0.689663 0.443057
58 4 0.56193 0.578555 0.440034
61 5 0.578938 0.500613 0.511552
54 5 0.517013 0.664893 0.471147
28 5 0.48868 0.258026 0.563932
30 4 0.48652 0.368739 0.605061
32 5 0.448862 0.324032 0.598342
31 3 0.466485 0.350467 0.639394
27 3 0.497603 0.321472 0.567505
35 5 0.436519 0.39603 0.711152
34 3 0.456163 0.422845 0.685227
36 5 0.443447 0.464234 0.64131
33 5 0.471501 0.304839 0.684511
37 4 0.471406 0.445841 0.73308
29 5 0.518465 0.321754 0.594392
46 5 0.516042 0.48441 0.659119
42 5 0.506852 0.562561 0.792421
14 5 0.44813 0.518037 0.50445
39 5 0.471216 0.490133 0.826885
40 5 0.442539 0.527721 0.75477
38 3 0.465909 0.504911 0.764721
49 5 0.49655 0.577199 0.547163
41 3 0.489101 0.569753 0.745309
43 5 0.4785 0.626495 0.76312
56 5 0.581277 0.625927 0.531367
52 3 0.536335 0.655155 0.511418
53 5 0.540923 0.716957 0.532885
50 5 0.531319 0.532249 0.544495
51 4 0.52963 0.633431 0.573448
48 3 0.518217 0.57929 0.575343
45 3 0.516384 0.550933 0.660417
44 4 0.493741 0.574835 0.680253
47 5 0.535063 0.578942 0.691112
ITEM: TIMESTEP
200
ITEM: NUMBER OF ATOMS
66
ITEM: BOX BOUNDS pp pp pp
-2.3151634207168492e+01 2.3151634207168492e+01
-8.6759719900618801e+00 8.6759719900618801e+00
-8.6759719900618801e+00 8.6759719900618801e+00
ITEM: ATOMS id type xs ys zs
21 5 0.444926 0.305324 0.377673
20 3 0.461664 0.348393 0.40418
16 4 0.450598 0.470931 0.431977
18 5 0.434442 0.422394 0.340444
17 3 0.43997 0.41657 0.407068
19 5 0.418929 0.398 0.433036
23 4 0.470893 0.316378 0.457964
22 5 0.478049 0.352189 0.354173
65 6 0.552009 0.433191 0.406565
66 7 0.535769 0.462135 0.385181
62 3 0.573672 0.463409 0.391861
64 5 0.591992 0.421405 0.404477
63 5 0.573347 0.486301 0.329689
24 3 0.49428 0.342871 0.481565
26 5 0.497597 0.407088 0.469963
25 5 0.511336 0.307175 0.448241
15 5 0.412265 0.519555 0.428736
13 3 0.436756 0.527235 0.434831
11 5 0.450158 0.644847 0.411891
8 5 0.486562 0.668792 0.325033
1 3 0.506838 0.55933 0.324391
3 5 0.526399 0.582476 0.293629
6 3 0.478378 0.607141 0.308925
7 5 0.476675 0.610126 0.244668
9 4 0.458412 0.568466 0.324544
10 3 0.444674 0.591387 0.373711
12 5 0.424787 0.601577 0.339851
5 7 0.485264 0.483724 0.298657
4 6 0.505464 0.496647 0.303704
2 5 0.513587 0.563195 0.385734
60 5 0.598481 0.559076 0.4173
59 3 0.578753 0.528919 0.446788
55 3 0.562238 0.625637 0.489531
57 5 0.564981 0.674616 0.444498
58 4 0.557977 0.567291 0.453033
61 5 0.587035 0.506077 0.505389
54 5 0.518868 0.664074 0.478153
28 5 0.493294 0.262283 0.574008
30 4 0.479706 0.36738 0.601429
32 5 0.458277 0.292866 0.666557
31 3 0.47059 0.349008 0.659912
27 3 0.495534 0.325598 0.571217
35 5 0.436413 0.38458 0.739181
34 3 0.453105 0.41553 0.698233
36 5 0.437717 0.43832 0.656284
33 5 0.49083 0.338529 0.699941
37 4 0.463405 0.439234 0.755284
29 5 0.518485 0.345345 0.594168
46 5 0.500239 0.484106 0.640898
42 5 0.505124 0.523505 0.789964
14 5 0.440972 0.560333 0.49431
39 5 0.453334 0.507279 0.836434
40 5 0.443308 0.534963 0.735897
38 3 0.459333 0.505013 0.772883
49 5 0.489716 0.601339 0.542117
41 3 0.488037 0.557451 0.759474
43 5 0.48399 0.612417 0.793663
56 5 0.578508 0.625528 0.536725
52 3 0.535456 0.65479 0.525622
53 5 0.538892 0.714387 0.553786
50 5 0.519423 0.532712 0.542801
51 4 0.528996 0.622436 0.581583
48 3 0.510383 0.584691 0.577044
45 3 0.506447 0.546227 0.656649
44 4 0.492884 0.584881 0.698216
47 5 0.529766 0.550724 0.681323
ITEM: TIMESTEP
300
ITEM: NUMBER OF ATOMS
66
ITEM: BOX BOUNDS pp pp pp
-2.3167282070080152e+01 2.3167282070080152e+01
-8.6759719900618801e+00 8.6759719900618801e+00
-8.6759719900618801e+00 8.6759719900618801e+00
ITEM: ATOMS id type xs ys zs
21 5 0.439295 0.284969 0.394832
20 3 0.45247 0.334847 0.412865
16 4 0.443333 0.466743 0.408181
18 5 0.416937 0.398921 0.367068
17 3 0.431868 0.404048 0.41688
19 5 0.417118 0.396379 0.472322
23 4 0.464557 0.311895 0.46474
22 5 0.467759 0.345346 0.363923
65 6 0.553309 0.428308 0.411899
66 7 0.536658 0.457864 0.394888
62 3 0.571725 0.464769 0.395328
64 5 0.591421 0.42597 0.390817
63 5 0.566858 0.487074 0.335661
24 3 0.484583 0.348397 0.488181
26 5 0.482448 0.415356 0.493315
25 5 0.506025 0.333347 0.458832
15 5 0.407366 0.521731 0.388876
13 3 0.430093 0.524173 0.412416
11 5 0.465539 0.601059 0.407864
8 5 0.485411 0.645703 0.276554
1 3 0.505471 0.545215 0.326769
3 5 0.525115 0.578047 0.307102
6 3 0.479222 0.583657 0.287961
7 5 0.474434 0.558731 0.225872
9 4 0.456 0.559252 0.307961
10 3 0.44809 0.582122 0.366476
12 5 0.431672 0.632532 0.357046
5 7 0.488547 0.470444 0.295315
4 6 0.508432 0.48177 0.308235
2 5 0.506555 0.549691 0.392113
60 5 0.597359 0.565032 0.438293
59 3 0.577135 0.532315 0.453505
55 3 0.559673 0.626293 0.49841
57 5 0.567875 0.672231 0.459359
58 4 0.556388 0.569734 0.459047
61 5 0.580208 0.503747 0.51132
54 5 0.515308 0.665201 0.466479
28 5 0.484902 0.255777 0.571193
30 4 0.470051 0.359386 0.603011
32 5 0.454297 0.279848 0.673152
31 3 0.465469 0.337619 0.668395
27 3 0.48739 0.325264 0.573256
35 5 0.434733 0.383179 0.755771
34 3 0.448759 0.402339 0.70658
36 5 0.436626 0.435031 0.655326
33 5 0.484035 0.329446 0.706987
37 4 0.463466 0.438494 0.749473
29 5 0.509132 0.34267 0.596516
46 5 0.502618 0.489469 0.663244
42 5 0.500998 0.523972 0.791785
14 5 0.431155 0.544023 0.471601
39 5 0.448187 0.501267 0.819499
40 5 0.439582 0.535926 0.715113
38 3 0.456581 0.504036 0.756391
49 5 0.487557 0.592827 0.552897
41 3 0.483459 0.561461 0.759494
43 5 0.47542 0.608466 0.800398
56 5 0.573351 0.622924 0.555141
52 3 0.530808 0.664334 0.51733
53 5 0.531692 0.725161 0.536078
50 5 0.520602 0.535289 0.54774
51 4 0.521819 0.642711 0.577252
48 3 0.509257 0.584405 0.579328
45 3 0.508662 0.553214 0.666524
44 4 0.491483 0.586945 0.700709
47 5 0.531663 0.560039 0.686046
ITEM: TIMESTEP
400
ITEM: NUMBER OF ATOMS
66
ITEM: BOX BOUNDS pp pp pp
-2.3179066558748538e+01 2.3179066558748538e+01
-8.6759719900618801e+00 8.6759719900618801e+00
-8.6759719900618801e+00 8.6759719900618801e+00
ITEM: ATOMS id type xs ys zs
21 5 0.444345 0.268405 0.380791
20 3 0.452835 0.330107 0.39971
16 4 0.447164 0.457007 0.404272
18 5 0.426996 0.399978 0.320979
17 3 0.432848 0.402187 0.386031
19 5 0.412593 0.388249 0.414896
23 4 0.45754 0.316608 0.465213
22 5 0.473026 0.340299 0.360122
65 6 0.549096 0.428958 0.419429
66 7 0.534322 0.466371 0.40677
62 3 0.570484 0.462 0.41487
64 5 0.587958 0.418564 0.431157
63 5 0.574335 0.479522 0.351195
24 3 0.481766 0.316271 0.484088
26 5 0.493493 0.36974 0.464908
25 5 0.494019 0.26376 0.461097
15 5 0.410744 0.516685 0.386216
13 3 0.434826 0.51204 0.401997
11 5 0.467773 0.610065 0.39974
8 5 0.486782 0.643104 0.281907
1 3 0.505851 0.5286 0.304858
3 5 0.517016 0.511238 0.24597
6 3 0.480156 0.579214 0.280022
7 5 0.474527 0.566863 0.220333
9 4 0.456938 0.557042 0.299807
10 3 0.450142 0.58052 0.360906
12 5 0.432646 0.626437 0.359293
5 7 0.48114 0.482042 0.357596
4 6 0.500909 0.474609 0.339491
2 5 0.523201 0.565356 0.335328
60 5 0.596462 0.552527 0.471924
59 3 0.572951 0.52953 0.474089
55 3 0.557357 0.634845 0.493394
57 5 0.563225 0.671516 0.436865
58 4 0.555596 0.576196 0.460629
61 5 0.567461 0.506686 0.535493
54 5 0.514126 0.657344 0.454049
28 5 0.484117 0.256083 0.594939
30 4 0.472431 0.365851 0.606906
32 5 0.439205 0.307526 0.633929
31 3 0.456924 0.346494 0.660926
27 3 0.485239 0.315432 0.577503
35 5 0.426517 0.400777 0.755343
34 3 0.441298 0.414033 0.702726
36 5 0.429662 0.44647 0.657099
33 5 0.466246 0.304886 0.709892
37 4 0.45963 0.45925 0.716758
29 5 0.508855 0.3324 0.588728
46 5 0.499218 0.496133 0.661163
42 5 0.495773 0.550723 0.792148
14 5 0.437959 0.534319 0.466356
39 5 0.453419 0.498416 0.814813
40 5 0.432143 0.544049 0.740477
38 3 0.452924 0.514402 0.750863
49 5 0.482703 0.599871 0.55229
41 3 0.477877 0.576653 0.756467
43 5 0.467569 0.63066 0.784718
56 5 0.573844 0.653818 0.539153
52 3 0.527578 0.663268 0.509869
53 5 0.529222 0.731218 0.515129
50 5 0.514106 0.53009 0.554802
51 4 0.519854 0.644604 0.569614
48 3 0.505568 0.587966 0.576681
45 3 0.503583 0.561695 0.663968
44 4 0.487459 0.600662 0.696864
47 5 0.526345 0.555268 0.690842
ITEM: TIMESTEP
500
ITEM: NUMBER OF ATOMS
66
ITEM: BOX BOUNDS pp pp pp
-2.3175260767201234e+01 2.3175260767201234e+01
-8.6759719900618801e+00 8.6759719900618801e+00
-8.6759719900618801e+00 8.6759719900618801e+00
ITEM: ATOMS id type xs ys zs
21 5 0.452054 0.279923 0.370128
20 3 0.458693 0.333101 0.400166
16 4 0.445361 0.45587 0.409651
18 5 0.428293 0.38622 0.331739
17 3 0.436396 0.393864 0.393255
19 5 0.417822 0.376572 0.438551
23 4 0.460815 0.308554 0.464999
22 5 0.478182 0.357154 0.367804
65 6 0.552808 0.409839 0.446736
66 7 0.537829 0.44344 0.426468
62 3 0.573826 0.445981 0.429728
64 5 0.594053 0.411814 0.447111
63 5 0.577623 0.454383 0.365389
24 3 0.481021 0.323232 0.498884
26 5 0.487313 0.388568 0.500711
25 5 0.499893 0.288411 0.473117
15 5 0.410679 0.500889 0.354833
13 3 0.429768 0.5071 0.39798
11 5 0.465205 0.58209 0.401304
8 5 0.491394 0.624173 0.313292
1 3 0.500931 0.507718 0.276177
3 5 0.489533 0.454762 0.259099
6 3 0.480488 0.576007 0.278869
7 5 0.479573 0.59905 0.214197
9 4 0.456499 0.556029 0.296984
10 3 0.447587 0.570897 0.358665
12 5 0.434231 0.625717 0.350964
5 7 0.490123 0.481794 0.367099
4 6 0.507263 0.497282 0.339245
2 5 0.519665 0.520619 0.23696
60 5 0.592782 0.557853 0.433771
59 3 0.574414 0.528389 0.467746
55 3 0.551208 0.625574 0.476924
57 5 0.557516 0.64958 0.421111
58 4 0.551602 0.56026 0.461135
61 5 0.581134 0.523863 0.530887
54 5 0.50862 0.658739 0.434112
28 5 0.46417 0.23949 0.584272
30 4 0.467669 0.354303 0.621142
32 5 0.428486 0.315487 0.639368
31 3 0.447575 0.348414 0.665389
27 3 0.475785 0.301292 0.58339
35 5 0.410356 0.427734 0.680717
34 3 0.434405 0.428923 0.678428
36 5 0.442253 0.462335 0.623433
33 5 0.452176 0.318274 0.720122
37 4 0.448803 0.457196 0.726704
29 5 0.499284 0.294582 0.600654
46 5 0.496098 0.491683 0.639697
42 5 0.495157 0.511615 0.763487
14 5 0.419955 0.53579 0.450455
39 5 0.44193 0.527047 0.797222
40 5 0.436277 0.56912 0.698667
38 3 0.44871 0.523528 0.734807
49 5 0.474828 0.606317 0.552541
41 3 0.47987 0.558847 0.74001
43 5 0.476307 0.608805 0.77976
56 5 0.566447 0.655809 0.518694
52 3 0.521885 0.661154 0.489376
53 5 0.529699 0.722631 0.48686
50 5 0.505827 0.544432 0.518052
51 4 0.513716 0.647821 0.551923
48 3 0.49889 0.593259 0.56038
45 3 0.501403 0.555947 0.642124
44 4 0.489981 0.591281 0.687283
47 5 0.525661 0.55376 0.654
ITEM: TIMESTEP
600
ITEM: NUMBER OF ATOMS
66
ITEM: BOX BOUNDS pp pp pp
-2.3166378415945371e+01 2.3166378415945371e+01
-8.6759719900618801e+00 8.6759719900618801e+00
-8.6759719900618801e+00 8.6759719900618801e+00
ITEM: ATOMS id type xs ys zs
21 5 0.459817 0.291338 0.388666
20 3 0.465676 0.347597 0.421171
16 4 0.448584 0.460386 0.424561
18 5 0.434062 0.401223 0.332532
17 3 0.441171 0.401934 0.397066
19 5 0.422403 0.380109 0.429305
23 4 0.462953 0.334834 0.48842
22 5 0.487127 0.358714 0.391356
65 6 0.548193 0.41594 0.445943
66 7 0.536472 0.450865 0.414803
62 3 0.570793 0.440297 0.438629
64 5 0.587081 0.397337 0.461002
63 5 0.576559 0.443565 0.374137
24 3 0.48414 0.33893 0.520328
26 5 0.499748 0.388528 0.525252
25 5 0.500249 0.292419 0.500351
15 5 0.410913 0.50019 0.390871
13 3 0.433367 0.513828 0.407968
11 5 0.463379 0.601366 0.39372
8 5 0.48212 0.633684 0.273093
1 3 0.501343 0.515194 0.275164
3 5 0.500348 0.465113 0.229793
6 3 0.474801 0.570762 0.263107
7 5 0.471125 0.568058 0.200232
9 4 0.455088 0.543587 0.293702
10 3 0.447496 0.573373 0.348501
12 5 0.432524 0.620949 0.327676
5 7 0.483471 0.474521 0.359077
4 6 0.502025 0.489457 0.337444
2 5 0.521702 0.552534 0.269246
60 5 0.596982 0.539239 0.476852
59 3 0.573662 0.518361 0.479479
55 3 0.555896 0.622386 0.48581
57 5 0.567238 0.670368 0.446719
58 4 0.55782 0.563429 0.453672
61 5 0.56992 0.501042 0.542188
54 5 0.513147 0.626581 0.424578
28 5 0.469212 0.253203 0.609348
30 4 0.466744 0.362091 0.637275
32 5 0.428354 0.350302 0.589417
31 3 0.442335 0.361099 0.641776
27 3 0.476925 0.313252 0.602884
35 5 0.411583 0.43447 0.705118
34 3 0.433125 0.440529 0.668367
36 5 0.430187 0.480964 0.61761
33 5 0.437847 0.313579 0.687458
37 4 0.447004 0.45723 0.72173
29 5 0.498892 0.322764 0.634328
46 5 0.484178 0.48273 0.59949
42 5 0.496776 0.499541 0.751613
14 5 0.429929 0.545505 0.463491
39 5 0.444483 0.516966 0.798146
40 5 0.43795 0.570887 0.703352
38 3 0.449997 0.520864 0.731638
49 5 0.471913 0.615683 0.542336
41 3 0.482904 0.549064 0.728943
43 5 0.483272 0.601324 0.771253
56 5 0.565978 0.634418 0.544791
52 3 0.52289 0.641861 0.482966
53 5 0.521137 0.707894 0.476326
50 5 0.493351 0.541861 0.500299
51 4 0.512328 0.628378 0.545781
48 3 0.493323 0.584706 0.548638
45 3 0.49577 0.537635 0.622445
44 4 0.487094 0.579161 0.672237
47 5 0.518857 0.517689 0.630773
ITEM: TIMESTEP
700
ITEM: NUMBER OF ATOMS
66
ITEM: BOX BOUNDS pp pp pp
-2.3129424791176305e+01 2.3129424791176305e+01
-8.6759719900618801e+00 8.6759719900618801e+00
-8.6759719900618801e+00 8.6759719900618801e+00
ITEM: ATOMS id type xs ys zs
21 5 0.471204 0.300303 0.379681
20 3 0.472302 0.351382 0.422056
16 4 0.452806 0.466867 0.432679
18 5 0.438334 0.400708 0.347156
17 3 0.447383 0.409366 0.40512
19 5 0.429416 0.381431 0.445066
23 4 0.468858 0.317047 0.480255
22 5 0.493605 0.380118 0.40019
65 6 0.545983 0.410476 0.418603
66 7 0.541456 0.454023 0.385483
62 3 0.566826 0.423306 0.451204
64 5 0.572867 0.372425 0.491084
63 5 0.583769 0.423981 0.404003
24 3 0.484509 0.324299 0.528516
26 5 0.500743 0.375236 0.528966
25 5 0.499736 0.275799 0.517634
15 5 0.413159 0.50564 0.398217
13 3 0.437032 0.51759 0.421965
11 5 0.466509 0.608395 0.397217
8 5 0.481752 0.63558 0.279407
1 3 0.498077 0.511675 0.270323
3 5 0.485647 0.455333 0.263542
6 3 0.473573 0.575642 0.266869
7 5 0.465564 0.580889 0.203074
9 4 0.453881 0.552061 0.301797
10 3 0.449138 0.577808 0.364136
12 5 0.430254 0.619611 0.361672
5 7 0.491486 0.525808 0.364546
4 6 0.507045 0.51014 0.330413
2 5 0.515837 0.525441 0.225168
60 5 0.590478 0.507603 0.511949
59 3 0.567129 0.502271 0.486648
55 3 0.559595 0.617889 0.471042
57 5 0.573496 0.651798 0.430296
58 4 0.560239 0.551753 0.446416
61 5 0.551737 0.497073 0.539161
54 5 0.517656 0.639712 0.416115
28 5 0.464666 0.244638 0.611118
30 4 0.469043 0.357609 0.644179
32 5 0.426777 0.334422 0.636731
31 3 0.446471 0.361589 0.671179
27 3 0.476686 0.303947 0.611372
35 5 0.411468 0.440407 0.697646
34 3 0.434899 0.445776 0.68837
36 5 0.436534 0.476084 0.62843
33 5 0.450776 0.332057 0.729089
37 4 0.440289 0.476924 0.745816
29 5 0.498424 0.303185 0.640584
46 5 0.501503 0.475578 0.605033
42 5 0.489714 0.49081 0.73903
14 5 0.433935 0.545875 0.483627
39 5 0.448448 0.561057 0.805889
40 5 0.435049 0.579995 0.707032
38 3 0.44792 0.539339 0.746103
49 5 0.480249 0.604258 0.520683
41 3 0.479725 0.544813 0.711096
43 5 0.488996 0.595996 0.742344
56 5 0.572481 0.625211 0.528033
52 3 0.527372 0.648952 0.477302
53 5 0.524519 0.713742 0.486285
50 5 0.507448 0.534897 0.490036
51 4 0.518806 0.627403 0.537585
48 3 0.502727 0.581347 0.538133
45 3 0.502255 0.539396 0.614767
44 4 0.480067 0.557462 0.64545
47 5 0.524159 0.551589 0.646864
ITEM: TIMESTEP
800
ITEM: NUMBER OF ATOMS
66
ITEM: BOX BOUNDS pp pp pp
-2.3088639165257188e+01 2.3088639165257188e+01
-8.6759719900618801e+00 8.6759719900618801e+00
-8.6759719900618801e+00 8.6759719900618801e+00
ITEM: ATOMS id type xs ys zs
21 5 0.469918 0.299028 0.389196
20 3 0.471708 0.341855 0.436255
16 4 0.458721 0.46304 0.432548
18 5 0.438434 0.386737 0.365286
17 3 0.447837 0.405422 0.427144
19 5 0.431133 0.394672 0.472884
23 4 0.469124 0.309622 0.496792
22 5 0.491649 0.369312 0.414163
65 6 0.549363 0.391077 0.430168
66 7 0.541507 0.439638 0.411723
62 3 0.570938 0.404572 0.458467
64 5 0.576432 0.36073 0.504389
63 5 0.58998 0.399636 0.41605
24 3 0.484533 0.326946 0.544224
26 5 0.492272 0.386785 0.548471
25 5 0.507295 0.294429 0.542667
15 5 0.419299 0.50581 0.42256
13 3 0.442765 0.515816 0.43183
11 5 0.470805 0.607881 0.397068
8 5 0.469235 0.644583 0.279146
1 3 0.496415 0.53269 0.256979
3 5 0.491585 0.475654 0.230077
6 3 0.467948 0.578756 0.265962
7 5 0.453811 0.579346 0.212466
9 4 0.453787 0.542789 0.310742
10 3 0.450733 0.574476 0.372725
12 5 0.432029 0.61906 0.381126
5 7 0.490535 0.491987 0.345266
4 6 0.505977 0.517598 0.317005
2 5 0.511154 0.572714 0.22577
60 5 0.594501 0.490868 0.496824
59 3 0.57024 0.482879 0.498641
55 3 0.566687 0.595874 0.480015
57 5 0.582119 0.624332 0.437562
58 4 0.559522 0.530262 0.464168
61 5 0.564664 0.476396 0.561406
54 5 0.527595 0.63294 0.4178
28 5 0.459196 0.254667 0.625302
30 4 0.455644 0.358201 0.643553
32 5 0.43362 0.310051 0.72058
31 3 0.44882 0.358945 0.709267
27 3 0.472639 0.3094 0.62692
35 5 0.408517 0.417558 0.753766
34 3 0.429831 0.437366 0.722286
36 5 0.419316 0.453169 0.666253
33 5 0.466786 0.361718 0.753639
37 4 0.440288 0.484576 0.762539
29 5 0.494987 0.30387 0.659627
46 5 0.510293 0.497902 0.608901
42 5 0.491049 0.489292 0.721722
14 5 0.444738 0.543708 0.48962
39 5 0.442022 0.591495 0.776476
40 5 0.436829 0.555372 0.675097
38 3 0.447691 0.540959 0.73322
49 5 0.484547 0.625579 0.518536
41 3 0.480792 0.547367 0.710545
43 5 0.48859 0.59091 0.756121
56 5 0.578292 0.6088 0.534423
52 3 0.537799 0.642109 0.476307
53 5 0.544024 0.705563 0.476555
50 5 0.504679 0.540535 0.503289
51 4 0.523496 0.643463 0.532984
48 3 0.505383 0.596343 0.537057
45 3 0.505217 0.561782 0.618232
44 4 0.483807 0.577053 0.653205
47 5 0.522721 0.585233 0.655963
ITEM: TIMESTEP
900
ITEM: NUMBER OF ATOMS
66
ITEM: BOX BOUNDS pp pp pp
-2.2974981971922947e+01 2.2974981971922947e+01
-8.6759719900618801e+00 8.6759719900618801e+00
-8.6759719900618801e+00 8.6759719900618801e+00
ITEM: ATOMS id type xs ys zs
21 5 0.462062 0.271166 0.417219
20 3 0.467091 0.3265 0.454253
16 4 0.459981 0.446622 0.437097
18 5 0.444065 0.384085 0.370257
17 3 0.446481 0.388634 0.43207
19 5 0.424076 0.372111 0.459745
23 4 0.466143 0.312698 0.522447
22 5 0.489897 0.337951 0.423336
65 6 0.549311 0.381383 0.458258
66 7 0.541898 0.433524 0.4642
62 3 0.574135 0.392843 0.45372
64 5 0.585946 0.339902 0.476814
63 5 0.579637 0.409462 0.392815
24 3 0.484212 0.338918 0.560175
26 5 0.484639 0.406316 0.55044
25 5 0.506474 0.320487 0.549192
15 5 0.419284 0.49318 0.43547
13 3 0.444482 0.50326 0.439317
11 5 0.475896 0.586177 0.407717
8 5 0.470766 0.637677 0.285478
1 3 0.486775 0.524135 0.234457
3 5 0.475434 0.468653 0.209976
6 3 0.463531 0.577341 0.274837
7 5 0.445056 0.583317 0.231995
9 4 0.4532 0.542918 0.324844
10 3 0.453335 0.569696 0.385754
12 5 0.438936 0.618963 0.405781
5 7 0.492746 0.507846 0.328782
4 6 0.50286 0.509615 0.279856
2 5 0.496564 0.562576 0.184588
60 5 0.603777 0.484669 0.483032
59 3 0.579894 0.470215 0.499638
55 3 0.571289 0.58466 0.493142
57 5 0.586083 0.614451 0.446125
58 4 0.56445 0.518912 0.483622
61 5 0.577809 0.4651 0.565774
54 5 0.533876 0.637896 0.433735
28 5 0.467792 0.274456 0.65039
30 4 0.464779 0.387274 0.674603
32 5 0.431106 0.326911 0.705955
31 3 0.44861 0.372909 0.723789
27 3 0.478058 0.335044 0.64806
35 5 0.412211 0.428033 0.781251
34 3 0.42905 0.44595 0.737687
36 5 0.413099 0.450536 0.683959
33 5 0.461989 0.357137 0.77903
37 4 0.442595 0.494849 0.76939
29 5 0.499962 0.334047 0.677342
46 5 0.503859 0.491502 0.610166
42 5 0.489193 0.510525 0.752308
14 5 0.447813 0.520735 0.502026
39 5 0.438067 0.593633 0.768106
40 5 0.436157 0.559058 0.669164
38 3 0.447912 0.549757 0.728528
49 5 0.493745 0.645269 0.529123
41 3 0.480224 0.562171 0.716363
43 5 0.48546 0.615134 0.753819
56 5 0.584698 0.602631 0.549446
52 3 0.545406 0.636929 0.493584
53 5 0.557928 0.694628 0.496996
50 5 0.508616 0.547295 0.499151
51 4 0.531569 0.627605 0.550843
48 3 0.509636 0.597804 0.543173
45 3 0.503028 0.557317 0.619793
44 4 0.481525 0.57982 0.650044
47 5 0.523788 0.566476 0.659278
ITEM: TIMESTEP
1000
ITEM: NUMBER OF ATOMS
66
ITEM: BOX BOUNDS pp pp pp
-2.2807876124502570e+01 2.2807876124502570e+01
-8.6759719900618801e+00 8.6759719900618801e+00
-8.6759719900618801e+00 8.6759719900618801e+00
ITEM: ATOMS id type xs ys zs
21 5 0.455966 0.2633 0.456853
20 3 0.464683 0.31707 0.484993
16 4 0.457206 0.43142 0.429684
18 5 0.433736 0.350155 0.401863
17 3 0.443359 0.381117 0.458879
22 5 0.485742 0.322166 0.452409
15 5 0.421064 0.487237 0.428579
13 3 0.445724 0.489943 0.439683
5 7 0.480559 0.468817 0.290651
4 6 0.493031 0.481345 0.247028
65 6 0.544597 0.392193 0.468443
66 7 0.533997 0.439216 0.458773
62 3 0.566772 0.399109 0.443521
64 5 0.579688 0.344581 0.459163
63 5 0.564151 0.404856 0.377072
60 5 0.604195 0.475492 0.46242
59 3 0.581307 0.465857 0.486566
11 5 0.482988 0.547384 0.406783
8 5 0.481244 0.641717 0.287411
1 3 0.48425 0.537367 0.220288
3 5 0.468626 0.520725 0.173211
6 3 0.466542 0.586676 0.278298
7 5 0.446451 0.604833 0.241148
9 4 0.453954 0.548145 0.325162
10 3 0.459416 0.557108 0.387977
12 5 0.454042 0.614422 0.417971
2 5 0.503245 0.567461 0.195264
57 5 0.590475 0.620027 0.489569
58 4 0.571569 0.521754 0.464195
54 5 0.533182 0.615868 0.446951
53 5 0.556855 0.685651 0.496963
19 5 0.425522 0.388223 0.504044
23 4 0.466236 0.313235 0.553184
24 3 0.487709 0.325757 0.579417
26 5 0.497086 0.382024 0.559703
28 5 0.476636 0.278803 0.691144
30 4 0.471098 0.396187 0.684787
32 5 0.434908 0.34104 0.68944
31 3 0.448935 0.389341 0.713766
27 3 0.483993 0.337931 0.669247
35 5 0.41134 0.451815 0.715031
34 3 0.435018 0.468904 0.700445
36 5 0.438382 0.48698 0.640111
33 5 0.454326 0.381599 0.77641
25 5 0.505931 0.276571 0.574113
61 5 0.583024 0.451075 0.549949
29 5 0.506969 0.345933 0.696086
46 5 0.504322 0.493628 0.641965
37 4 0.43996 0.504317 0.750958
42 5 0.488515 0.511237 0.756414
14 5 0.447912 0.507868 0.50516
39 5 0.441855 0.583886 0.806625
40 5 0.435753 0.602904 0.702923
38 3 0.448206 0.566832 0.744507
49 5 0.497388 0.632996 0.552664
41 3 0.481392 0.570071 0.737003
43 5 0.48746 0.613531 0.783293
44 4 0.488387 0.592397 0.677745
55 3 0.573877 0.574815 0.505606
56 5 0.580857 0.566672 0.565925
52 3 0.546696 0.62448 0.501858
50 5 0.511498 0.53168 0.526909
51 4 0.534991 0.625234 0.563332
48 3 0.514956 0.585101 0.566126
45 3 0.508492 0.559711 0.650545
47 5 0.530067 0.560655 0.680313
ITEM: TIMESTEP
1100
ITEM: NUMBER OF ATOMS
66
ITEM: BOX BOUNDS pp pp pp
-2.2658034778491480e+01 2.2658034778491480e+01
-8.6759719900618801e+00 8.6759719900618801e+00
-8.6759719900618801e+00 8.6759719900618801e+00
ITEM: ATOMS id type xs ys zs
21 5 0.446968 0.266923 0.460857
20 3 0.462124 0.313329 0.486922
16 4 0.454626 0.430636 0.438556
18 5 0.425005 0.358909 0.436599
17 3 0.442403 0.383117 0.47396
22 5 0.482755 0.314596 0.448107
15 5 0.420714 0.494492 0.425096
13 3 0.444913 0.49101 0.443191
5 7 0.479544 0.447797 0.228218
4 6 0.495148 0.485321 0.222913
65 6 0.540755 0.388413 0.426567
66 7 0.538637 0.442216 0.413281
62 3 0.563174 0.386924 0.455527
64 5 0.565471 0.332783 0.492423
63 5 0.579419 0.38609 0.40623
60 5 0.597732 0.465066 0.481888
59 3 0.573682 0.459971 0.501634
11 5 0.487686 0.518171 0.38866
8 5 0.493855 0.61212 0.316832
1 3 0.483767 0.545166 0.213258
3 5 0.463052 0.535565 0.175636
6 3 0.474507 0.584419 0.286777
7 5 0.458349 0.633019 0.275925
9 4 0.458401 0.54866 0.327444
10 3 0.464133 0.544331 0.392575
12 5 0.466434 0.600993 0.427256
2 5 0.499007 0.586188 0.177307
57 5 0.585272 0.611388 0.467677
58 4 0.562394 0.515503 0.479848
54 5 0.533111 0.617983 0.453941
53 5 0.550862 0.686818 0.523294
19 5 0.433353 0.407029 0.531759
23 4 0.466017 0.29604 0.553485
24 3 0.487518 0.32244 0.582613
26 5 0.495426 0.385539 0.563677
28 5 0.466592 0.28 0.692059
30 4 0.471953 0.394781 0.68606
32 5 0.431578 0.375143 0.64305
31 3 0.446908 0.400814 0.688111
27 3 0.480332 0.333331 0.672943
35 5 0.415095 0.489396 0.674097
34 3 0.440162 0.488741 0.68491
36 5 0.453793 0.505576 0.629051
33 5 0.440631 0.375735 0.747632
25 5 0.507972 0.287284 0.578256
61 5 0.572462 0.449836 0.566988
29 5 0.502098 0.325267 0.703836
46 5 0.499936 0.49222 0.655242
37 4 0.441476 0.508263 0.745934
42 5 0.494778 0.505639 0.779697
14 5 0.445171 0.519579 0.499627
39 5 0.447341 0.596174 0.817171
40 5 0.443617 0.614153 0.71439
38 3 0.452017 0.56764 0.757989
49 5 0.492707 0.606602 0.569744
41 3 0.486955 0.566577 0.760855
43 5 0.493165 0.60942 0.807996
44 4 0.499601 0.592636 0.706891
55 3 0.570353 0.575429 0.50818
56 5 0.586774 0.578604 0.560973
52 3 0.543752 0.625254 0.513558
50 5 0.513811 0.521849 0.541788
51 4 0.533598 0.619418 0.574833
48 3 0.513946 0.576334 0.577849
45 3 0.510669 0.547049 0.664238
47 5 0.534704 0.526466 0.681589
ITEM: TIMESTEP
1200
ITEM: NUMBER OF ATOMS
66
ITEM: BOX BOUNDS pp pp pp
-2.2550328147970490e+01 2.2550328147970490e+01
-8.6759719900618801e+00 8.6759719900618801e+00
-8.6759719900618801e+00 8.6759719900618801e+00
ITEM: ATOMS id type xs ys zs
21 5 0.437639 0.267015 0.442852
20 3 0.452392 0.313319 0.474332
16 4 0.455371 0.438108 0.440852
18 5 0.422767 0.376045 0.405596
17 3 0.438357 0.389199 0.457865
22 5 0.475378 0.30941 0.443773
15 5 0.423874 0.508224 0.420766
13 3 0.447596 0.500777 0.443665
5 7 0.488747 0.466785 0.250322
4 6 0.496756 0.499805 0.210724
65 6 0.539723 0.373899 0.404966
66 7 0.532817 0.424121 0.38741
62 3 0.563468 0.382062 0.430698
64 5 0.566348 0.328915 0.469919
63 5 0.582984 0.39041 0.388521
60 5 0.588241 0.45633 0.504082
59 3 0.5635 0.451944 0.485525
11 5 0.491995 0.540786 0.413427
8 5 0.485709 0.628774 0.307395
1 3 0.478157 0.544711 0.207372
3 5 0.457826 0.516385 0.179552
6 3 0.470143 0.578705 0.288466
7 5 0.446906 0.606381 0.288055
9 4 0.470054 0.530582 0.335142
10 3 0.468344 0.552709 0.400378
12 5 0.464606 0.615733 0.41617
2 5 0.484167 0.59441 0.166926
57 5 0.579295 0.582031 0.437871
58 4 0.553176 0.509233 0.468283
54 5 0.523899 0.61521 0.452531
53 5 0.548054 0.686654 0.505865
19 5 0.424507 0.397097 0.511738
23 4 0.453337 0.298049 0.541067
24 3 0.477085 0.312078 0.571901
26 5 0.483818 0.373029 0.564211
28 5 0.461646 0.261717 0.682807
30 4 0.470872 0.375231 0.684854
32 5 0.428825 0.378323 0.641376
31 3 0.446046 0.394308 0.690492
27 3 0.474934 0.312234 0.660564
35 5 0.418005 0.497858 0.698312
34 3 0.442182 0.481834 0.69634
36 5 0.450463 0.511856 0.642656
33 5 0.440587 0.363707 0.74244
25 5 0.495881 0.27074 0.552877
61 5 0.548571 0.439746 0.537952
29 5 0.498658 0.303357 0.6834
46 5 0.500972 0.490146 0.676008
37 4 0.450598 0.504405 0.758536
42 5 0.501177 0.539121 0.805638
14 5 0.447288 0.52811 0.507294
39 5 0.445976 0.5961 0.821214
40 5 0.443791 0.608241 0.71945
38 3 0.456001 0.574969 0.765034
49 5 0.487702 0.601527 0.571612
41 3 0.490569 0.585823 0.768138
43 5 0.49461 0.644304 0.798435
44 4 0.502673 0.604749 0.710367
55 3 0.564476 0.565512 0.489291
56 5 0.581318 0.571119 0.536612