LAMMPS data file via write_data, version 23 Jun 2022, timestep = 10000

1365 atoms
7 atom types
931 bonds
6 bond types
551 angles
9 angle types
74 dihedrals
14 dihedral types

-22.860069431935248 22.860069431935248 xlo xhi
-8.67597199006188 8.67597199006188 ylo yhi
-8.67597199006188 8.67597199006188 zlo zhi

Masses

1 15.9994
2 1.008
3 12.011
4 15.9994
5 1.008
6 15.9994
7 1.008

Pair Coeffs # lj/cut/tip4p/long/omp

1 0.18479 3.165
2 0 0
3 0.056 3.58141
4 0.1 2.93997
5 0.035 2.38761
6 0.192 3.14487
7 0.046 0.40001

Bond Coeffs # harmonic/omp

1 0 0.9572
2 222.35 1.53
3 308.79 1.1111
4 359.76 1.1415
5 427.715 1.142
6 544.635 0.96

Angle Coeffs # charmm/omp

1 0 104.52 0 0
2 50 109 0 0
3 26.5 110.1 22.53 2.179
4 45 111.5 0 0
5 13.0258 109.4 0 0
6 35.5 109 5.4 1.802
7 55 108.89 0 0
8 75.7 110.1 0 0
9 95 109.7 0 0

Dihedral Coeffs # charmm/omp

1 0.57 1 0 0
2 0.29 2 0 0
3 0.43 3 0 0
4 0.59 1 180 0
5 1.16 2 0 0
6 0.12 1 0 0
7 0.42 2 0 0
8 0.29 3 0 0
9 2.87 1 180 0
10 0.03 2 0 0
11 0.23 3 0 0
12 1.36 1 180 0
13 0.16 2 0 0
14 1.01 3 0 0

Atoms # full

1648 529 1 -1.054 -18.135940013812167 -7.335527922239411 -4.319730588996464 0 0 0
1649 529 2 0.527 -18.641948784841876 -7.991158217561945 -3.8398175331511784 0 0 0
1827 588 2 0.527 -19.089438992483597 -3.32124269923883 -5.205359230301742 0 0 1
1825 588 1 -1.054 -19.388365645647298 -3.644285439866138 -6.0553662020184005 0 0 1
1826 588 2 0.527 -18.591464785233843 -3.9464660206563718 -6.491046753071719 0 0 1
225 54 2 0.527 -19.35811422658859 -3.0689249903507276 -1.8979982097200718 0 0 0
1650 529 2 0.527 -18.58034522785574 -7.260247767815304 -5.1641554086813874 0 0 0
223 54 1 -1.054 -19.49060872758068 -3.343588687251758 -2.8053216775803023 0 0 0
224 54 2 0.527 -18.73249071358708 -3.893563723076591 -3.0027280487347117 0 0 0
1161 366 2 0.527 -21.311607224804213 -4.286606818210111 -5.386941681797854 0 0 0
1346 428 2 0.527 -22.489237311952348 -6.547189827173891 -5.517614571639405 0 0 1
823 254 1 -1.054 -18.8929094015674 -8.125755195022935 -1.4840682494188329 0 1 0
184 41 1 -1.054 -17.38465217873992 -5.001608614155462 -3.454227104809985 0 0 0
185 41 2 0.527 -17.8019631641158 -5.703245665983775 -3.954001958078905 0 0 0
590 176 2 0.527 -20.719891007970237 -2.0634315312133484 -3.6289190762420898 1 0 0
186 41 2 0.527 -16.489702016661454 -5.30904969669681 -3.310311934313062 0 0 0
1345 428 1 -1.054 -21.68514670252654 -7.0099385135622825 -5.753161576044035 0 0 1
1347 428 2 0.527 -21.561580375979865 -6.818408016890139 -6.6828271794538265 0 0 1
141 26 2 0.527 -21.256514843216113 -4.303240493771604 -1.8767081711371985 0 0 0
591 176 2 0.527 -22.105754771415242 -1.9025280768864121 -4.216482482016393 1 0 0
589 176 1 -1.054 -21.41629701315827 -1.4200515984879143 -3.760349611630387 1 0 0
2014 651 1 -1.054 -17.038917205665154 -4.082987188431814 -7.510010966564985 0 0 0
2016 651 2 0.527 -16.553913133153866 -3.369228255129272 -7.095847528731877 0 0 0
1159 366 1 -1.054 -21.882538956167394 -3.8868119638460934 -4.730887674935279 0 0 0
675 204 2 0.527 -20.472357121401185 -2.7287591654138623 -7.270339855867267 1 0 0
139 26 1 -1.054 -22.110281241997523 -4.512973526667891 -2.255216817722043 0 0 0
2072 670 2 0.527 -21.2614203564627 7.883319016334871 -3.302576238862203 1 0 0
1993 644 1 -1.054 -22.036003424838583 -4.422747696535915 8.503170845081593 1 1 -1
755 231 2 0.527 -16.72243366349119 -0.3183638383133154 -3.170921488643965 0 0 0
754 231 1 -1.054 -16.215531934282538 -0.9353626033742692 -3.698723789491778 0 0 0
1160 366 2 0.527 -22.69798858017617 -4.3848882978585175 -4.786919109752786 0 0 0
140 26 2 0.527 -21.986747552849106 -4.408539063978141 -3.1986485814115824 0 0 0
2114 684 2 0.527 -19.556837486493503 2.7711148701832897 -1.5082199372744647 0 0 0
673 204 1 -1.054 -20.883594829287226 -1.975637439821992 -7.694496806035445 1 0 0
2071 670 1 -1.054 -20.61336769064803 8.556450402012223 -3.5102335226397 1 0 0
1604 514 2 0.527 -17.493435230187643 -5.938063087266053 -7.12754642175795 0 1 0
557 165 2 0.527 -22.82362109995701 -6.233820008432733 -2.254392309136912 1 1 0
1568 502 2 0.527 -21.594372638587622 -6.028861258315911 8.619273908445896 0 1 -1
2015 651 2 0.527 -17.19402979034804 -3.7802520554794583 -8.404730023231792 0 0 0
2111 683 2 0.527 -19.15615215360103 -0.8504117080449412 -7.5995687849629965 0 0 0
2112 683 2 0.527 -18.286644314682306 -0.8875274928825467 8.51366085200151 0 0 -1
380 106 2 0.527 -14.533525509681212 -5.898051262554494 -1.9515161941622967 0 1 0
1934 624 2 0.527 -22.274215567840997 -0.12628468405574367 -2.220139518058004 1 0 0
556 165 1 -1.054 22.679641614513617 -7.161791184579577 -2.164600137252405 0 1 0
674 204 2 0.527 -21.562500995876857 -1.6956175063575643 -7.080600496994876 1 0 0
2110 683 1 -1.054 -18.53355788171801 -0.3261910344870973 -8.103325779906235 0 0 0
1476 471 2 0.527 -22.171927639080852 -8.27920846893725 -0.8733966143690104 0 1 0
315 84 2 0.527 -15.989455065204512 -1.6129121023373525 -5.484901082534679 0 0 1
716 218 2 0.527 -15.610311118176146 8.632948947467996 -6.539912875112583 0 0 1
715 218 1 -1.054 -15.077531969761367 -8.196795419527414 -5.940192736610425 0 1 1
756 231 2 0.527 -15.369441661964332 -0.9922533511489702 -3.2547991373046177 0 0 0
824 254 2 0.527 -19.030083354425937 -7.194684868672318 -1.3093639917531563 0 1 0
2073 670 2 0.527 -21.0614546329656 -8.211586233528726 -4.122186689206534 1 1 0
825 254 2 0.527 -19.709697623726615 -8.416754306232239 -1.8894784179746313 0 1 0
717 218 2 0.527 -15.299599795534032 -8.529162430218898 -5.0704535829322435 0 1 1
1622 520 2 0.527 -20.384263959923036 -8.234809600070157 -7.520169017600882 0 1 0
1567 502 1 -1.054 -21.365494333631474 -6.91808973458855 -8.462272135321633 0 1 0
1569 502 2 0.527 -20.860575604183726 -7.269450857239665 8.156313071983886 0 1 -1
1603 514 1 -1.054 -17.892902785354718 -6.803931450538488 -7.210714837136253 0 1 0
379 106 1 -1.054 -14.70530746813547 -5.714381957092996 -1.0279426249523675 0 1 0
313 84 1 -1.054 -15.545320630361608 -2.1464163506278444 -6.143940599952159 0 0 1
314 84 2 0.527 -15.00364325669387 -1.525040345833859 -6.630444064543922 0 0 1
1605 514 2 0.527 -17.191670923509783 -7.414583943104718 -6.983622835979107 0 1 0
381 106 2 0.527 -14.27952803574956 -6.431048504715366 -0.5574953274621741 0 1 0
1776 571 2 0.527 -10.171331702715053 -3.5822765677617125 -1.2712971369106327 0 0 0
1774 571 1 -1.054 -10.022168930625746 -4.017346024170678 -2.1107588666907464 0 0 0
1775 571 2 0.527 -9.201781246725105 -3.6435485877087377 -2.432348042641074 0 0 0
191 43 2 0.527 -11.847802482781773 -4.445074800944259 -4.694302660110477 0 0 1
384 107 2 0.527 -13.321713283417548 -2.159803792099403 -1.9656799141009476 0 0 0
382 107 1 -1.054 -13.487758700100862 -1.5196012795107299 -2.6576330175927136 0 0 0
383 107 2 0.527 -12.617798335187992 -1.2190054170136477 -2.920278948274192 0 0 0
190 43 1 -1.054 -11.0534175358142 -4.977296807430319 -4.651020951095618 0 0 1
192 43 2 0.527 -10.695548271564395 -4.803913982200849 -3.780336991567939 0 0 1
1325 421 2 0.527 -11.210862406683546 -0.9138429860379507 -4.770759164952328 0 0 0
1326 421 2 0.527 -10.49714292683643 -0.4815930713161265 -3.507580336697865 0 0 0
1324 421 1 -1.054 -11.180486809920884 -1.0708309186661342 -3.8270089396687874 0 0 0
2166 701 2 0.527 -9.319323837632252 -2.654488738009393 -6.215033633847611 0 0 0
1814 584 2 0.527 -12.076567419829674 -1.0232403731294788 -7.067016858989604 0 0 1
1815 584 2 0.527 -11.073622522337248 -2.0858873656911703 -7.462866850080932 0 0 1
1813 584 1 -1.054 -11.216221695589933 -1.3748088884690004 -6.838156368734649 0 0 1
1272 403 2 0.527 -8.939973872805512 1.1054214344175683 -7.388001340590997 0 0 0
1688 542 2 0.527 -12.039668074252148 -7.498951799096204 -7.867437247028804 0 1 1
1608 515 2 0.527 -9.705413705364975 -6.391846788913862 -5.6835748400004436 0 1 0
1965 634 2 0.527 -13.75725864232258 -3.9565382336488426 -0.5331555361483957 0 1 0
1963 634 1 -1.054 -13.31639016408483 -3.136409497440672 -0.31125055279768965 0 1 0
1545 494 2 0.527 -14.569787855411683 -6.479013435645916 -4.177925603109665 0 1 1
1448 462 2 0.527 -8.883865807594873 0.7550336178073334 -5.497270544905234 0 0 0
1543 494 1 -1.054 -14.56578492629563 -5.667150642976558 -3.6708803892097626 0 1 1
728 222 2 0.527 -10.409982610008072 -5.766750765608721 -1.3447550650926452 0 0 0
1544 494 2 0.527 -14.124937107330712 -5.033137006177515 -4.23647439004202 0 1 1
882 273 2 0.527 -7.887953828637082 -3.9615288930741066 -7.339955694803422 0 0 1
881 273 2 0.527 -7.974233999626485 -4.932597538770361 -8.498178087716086 0 0 1
428 122 2 0.527 -13.831524911778713 0.19093642738272543 -2.053530952380184 0 0 0
1449 462 2 0.527 -8.20538941608773 0.8154020565617621 -4.145277014773117 0 0 0
880 273 1 -1.054 -7.348889203597468 -4.511525917668084 -7.908394874848165 0 0 1
1687 542 1 -1.054 -12.132861198729373 -7.190157040628882 8.583289714177548 0 1 0
1447 462 1 -1.054 -9.041784636657153 0.9803868106361442 -4.580478708335948 0 0 0
1494 477 2 0.527 -12.323444778878885 8.467182522811706 -1.221457530091513 0 0 0
1492 477 1 -1.054 -12.081134146476124 -8.302716349820416 -1.9416910246264338 0 1 0
1493 477 2 0.527 -11.267329969637553 -7.889695268076377 -1.6530470772231096 0 1 0
1663 534 1 -1.054 -13.365264717036144 -3.289156041971607 -4.921930824855103 0 1 1
1664 534 2 0.527 -13.929932340785992 -2.836775140432577 -5.5485958662389425 0 1 1
1665 534 2 0.527 -13.345383304228411 -2.713304552754276 -4.1575796649543735 0 1 1
727 222 1 -1.054 -10.115082213827305 -6.562789083935283 -0.902508989008795 0 0 0
729 222 2 0.527 -10.697335049805403 -6.647649800465519 -0.1475358529371622 0 0 0
1007 315 2 0.527 -8.766853766933838 -7.905846083942955 -7.126202079114817 0 1 0
1162 367 1 -1.054 -13.87056575192376 -0.33475553885249276 -7.418178423952778 0 0 1
1606 515 1 -1.054 -9.577061831562538 -7.337874922536641 -5.614386691690493 0 1 0
1607 515 2 0.527 -10.435401359954367 -7.711726133158136 -5.813538722207116 0 1 0
1283 407 2 0.527 -8.613432419535481 -8.25153400794428 -2.8953833909700766 0 1 1
1008 315 2 0.527 -8.151026164492157 -7.9280851106681345 -8.508998511532083 0 1 0
2164 701 1 -1.054 -8.413666516328023 -2.830051759559944 -5.959830358946991 0 0 0
1228 389 1 -1.054 -12.099765601627944 -8.546096832773346 -6.15159548019815 0 1 0
1229 389 2 0.527 -11.843666340123056 7.958543637664922 -5.787291629838441 0 0 0
1230 389 2 0.527 -12.874676184542997 -8.29344265614007 -5.649735944320573 0 1 0
1196 378 2 0.527 -11.644441705156222 -3.3001998542759043 0.33112487655489886 0 0 0
1195 378 1 -1.054 -10.735073612744323 -3.154878243825978 0.592077087394502 0 0 0
1964 634 2 0.527 -13.769491523850686 -2.82469665055294 0.4721711646188531 0 1 0
818 252 2 0.527 -13.212037655235529 -7.286984037046045 1.1077742125982226 0 1 0
817 252 1 -1.054 -14.122684823622826 -7.579278715546126 1.1458710925005722 0 1 0
1970 636 2 0.527 -8.630780529758427 -6.464158185799828 0.2799314926572656 0 0 0
2157 698 2 0.527 -7.34510438199432 -3.769779904211415 -3.0017269536467284 0 1 0
2156 698 2 0.527 -7.283924383240279 -2.3384075387175507 -2.5125174652916717 0 1 0
2155 698 1 -1.054 -7.739303404048933 -2.9074632617650593 -3.1330181602211162 0 1 0
2165 701 2 0.527 -8.427158170364796 -2.816960025459119 -5.002814276210381 0 0 0
1652 530 2 0.527 -6.285737513062223 -0.3497979014543109 -2.384895081739762 0 0 0
1651 530 1 -1.054 -6.5137667889712105 -0.7732441774771122 -1.5572940783044658 0 0 0
16 1 4 -0.34 -1.5470970138829259 -2.2779593769406157 -0.6931032947166571 0 0 0
17 1 3 -0.01 -1.2528879377214928 -3.2693623477146616 -0.14198448697490207 0 0 0
494 144 2 0.527 -5.687877345142475 -5.084012889979723 -3.545420402879607 0 1 1
493 144 1 -1.054 -6.162294685649652 -5.623028929170792 -2.912486596687689 0 1 1
495 144 2 0.527 -6.12446374561312 -6.508135711571473 -3.274960093211721 0 1 1
1962 633 2 0.527 -4.393500098885134 -7.308374942294412 -6.268919740973882 0 0 1
1960 633 1 -1.054 -3.7344800454438882 -7.715090469081717 -5.706359874570457 0 0 1
2005 648 1 -1.054 -4.991064712441673 -3.6956114686170256 -4.568829831759786 0 0 1
2159 699 2 0.527 -6.224819173143718 -5.855805871368983 -7.801755067051633 0 0 1
1961 633 2 0.527 -4.134091659151945 -7.724455434986555 -4.836622583782875 0 0 1
1787 575 2 0.527 -2.1271130914021015 -3.8926537848609346 -7.640980589407859 0 0 0
2006 648 2 0.527 -5.502729493577679 -3.031788185731405 -5.031160308333969 0 0 1
2007 648 2 0.527 -4.151948254338695 -3.715260078674267 -5.028909152505479 0 0 1
1653 530 2 0.527 -6.989392784190951 -0.10234178002524175 -1.0675156794074434 0 0 0
2158 699 1 -1.054 -5.491252616986003 -6.460040693643937 -7.915640704806458 0 0 1
2160 699 2 0.527 -5.558819573260603 -6.750838151030706 8.526850689275323 0 0 0
858 265 2 0.527 -6.700406971381128 -2.0214237403112723 -6.0561449892653005 0 0 0
1015 318 1 -1.054 -1.8857766689187692 -7.073925941732196 -1.3642367399004733 0 0 0
13 1 3 -0.01 -2.6977360070779177 -2.154924082247801 -0.8438144895558812 0 0 0
856 265 1 -1.054 -5.949365157099123 -1.4923802332818719 -5.787373138008028 0 0 0
857 265 2 0.527 -5.371470822157374 -1.490972335761544 -6.550422118592445 0 0 0
11 1 5 0.09 -2.6733127176622986 0.01973525531681375 -1.494973691571933 0 0 0
3 1 5 0.09 -1.216471259385962 -1.0633057071401462 -5.176508810206718 0 0 0
7 1 5 0.09 -3.413690625067254 -1.1158050779003386 -4.6659466073491345 0 0 0
9 1 4 -0.34 -2.558736087182286 -1.3419473957623165 -2.991483909436818 0 0 0
10 1 3 -0.01 -2.992355082270471 -1.0269063901216775 -1.87742779236879 0 0 0
19 1 5 0.09 -1.839745921770806 -4.290071366137094 -0.2792847000303773 0 0 0
575 171 2 0.527 -6.272575161981468 -0.1746004704627584 -4.74065995719601 0 0 0
15 1 5 0.09 -3.2827667980675272 -3.0188227480851193 -1.2427763286685094 0 0 0
574 171 1 -1.054 -6.204680559568267 0.43929368389427026 -4.009389958858293 0 0 0
1 1 3 0.05 -1.5448835804547798 -0.1136926087645076 -4.610716069089038 0 0 0
6 1 3 -0.01 -2.7985225362482993 -0.5632511121929085 -3.8555202391210006 0 0 0
1016 318 2 0.527 -1.64029676386048 -7.9964462269488 -1.2940673397737967 0 0 0
1017 318 2 0.527 -1.1673879458629628 -6.670817976957192 -1.8516927259165854 0 0 0
1588 509 1 -1.054 -4.367741253614533 -1.1623744033258898 -7.901523706051568 0 0 1
735 224 2 0.527 -2.889698294146534 -6.075990339809811 -5.705800547894932 0 0 1
733 224 1 -1.054 -2.5670219387980815 -5.206571320402929 -5.942897754885186 0 0 1
12 1 5 0.09 -4.077779856903323 -1.0419595415020106 -2.0092208673117176 0 0 0
734 224 2 0.527 -2.2528102161030894 -4.834282059868118 -5.118946156418044 0 0 1
1590 509 2 0.527 -4.436100066715873 -0.27769463391907045 -8.260551397603125 0 0 1
659 199 2 0.527 -5.945894352028802 -2.149339972919609 0.005586178636093564 0 0 -1
2151 696 2 0.527 0.545166117884893 -8.377699718449888 -5.802233253920279 0 0 1
576 171 2 0.527 -5.986621374966418 1.2767250895312898 -4.418520710116104 0 0 0
1533 490 2 0.527 -3.420468222983441 -5.959903839797743 -1.0218016471672042 0 0 0
1531 490 1 -1.054 -4.227445539569036 -5.472876461149808 -0.8551521126519201 0 0 0
1788 575 2 0.527 -2.4507514201125176 -2.413835854700782 -7.625395082487061 0 0 0
1786 575 1 -1.054 -1.8916704271360238 -3.0618622478433863 -8.053995347894144 0 0 0
4 1 6 -0.65 -0.6944247361081715 0.26305775551756305 -3.8746265696726994 0 0 0
5 1 7 0.42 -0.3430408109705567 -0.44195716284676223 -3.2989325720309894 0 0 0
876 271 2 0.527 -1.0787656005457613 -4.670504670025911 -3.1176946869351347 0 0 1
875 271 2 0.527 -1.7188672579855826 -3.2998314445745827 -3.0595017338619837 0 0 1
874 271 1 -1.054 -1.4839814042483361 -4.000341588045943 -3.6680590227857497 0 0 1
1359 432 2 0.527 -0.2397401115293185 -2.4250319803174136 -7.750335319604416 0 0 1
2 1 5 0.09 -1.8601885029835756 0.6925467413844046 -5.367311481944291 0 0 0
1532 490 2 0.527 -4.739520061668536 -5.575265796529856 -1.6573410454165778 0 0 0
1698 545 2 0.527 -0.04140219843258208 -6.693173131277979 -7.617236255793541 0 0 1
18 1 5 0.09 -0.17431996965570917 -3.4967961478969034 -0.4105277518310757 0 0 0
1830 589 2 0.527 1.4478947406843687 8.055402618583068 -3.9615679101877666 0 -1 1
1828 589 1 -1.054 1.867107228990367 7.996580703422561 -3.103070628426548 0 -1 1
887 275 2 0.527 0.6962979958052635 -3.5130106177842944 -6.178720576871481 0 0 1
886 275 1 -1.054 0.699148898887632 -4.075785700491788 -5.404440754496339 0 0 1
681 206 2 0.527 3.0226726367524392 -7.472589284588246 -5.799655093367886 0 1 1
680 206 2 0.527 2.1164181287829535 -6.784396161549163 -6.7981143640271675 0 1 1
679 206 1 -1.054 2.9970194306921627 -7.146214593133996 -6.699128987680283 0 1 1
888 275 2 0.527 -0.07411876294100495 -3.8061444246800775 -4.908925075958909 0 0 1
1642 527 1 -1.054 2.3311002113264543 -4.30724568690685 -0.8903088957026464 0 0 0
1644 527 2 0.527 3.05021368957658 -4.337088003410809 -1.5213194805219459 0 0 0
1643 527 2 0.527 2.743951371915241 -4.042701870814628 -0.0682444993931739 0 0 0
1521 486 2 0.527 2.8550281398163158 -3.7384866834815647 -5.056147024241328 0 0 0
1520 486 2 0.527 3.262627768500206 -2.368613274967652 -4.556957036587583 0 0 0
1519 486 1 -1.054 3.596106630231585 -3.2559351172680273 -4.689904542756958 0 0 0
564 167 2 0.527 6.94809268256256 -3.7347212430603767 -5.238947359599494 0 0 0
1844 594 2 0.527 4.343618062366936 -3.8455314385484076 -3.214233453362347 0 1 0
1845 594 2 0.527 5.241392162340041 -3.719767202737521 -2.001789814034387 0 1 0
1843 594 1 -1.054 4.673581603405143 -4.337543829672025 -2.462386533325687 0 1 0
119 19 2 0.527 7.533433885178994 -1.1257401641054647 -2.8725555464235306 0 0 0
74 4 2 0.527 5.467581939345294 -5.795240716222961 -3.093800484897521 0 0 0
73 4 1 -1.054 5.907557718941423 -6.305859252585173 -3.773438234119764 0 0 0
719 219 2 0.527 0.7265069158618758 -6.306501469980125 -2.621797055610104 0 0 0
720 219 2 0.527 0.8877154890843322 -5.1113707696811685 -1.7066100421552983 0 0 0
646 195 1 -1.054 6.159353818833079 -3.171017309491096 -0.37703878452941986 0 0 0
752 230 2 0.527 3.69697581399425 -8.65227692020707 -7.746813810793277 0 1 1
75 4 2 0.527 5.210458392805268 -6.827968183991021 -4.17048549040267 0 0 0
65 1 6 -0.65 0.8612984945367117 -1.0788214792803918 -1.668314725779366 0 0 0
66 1 7 0.42 0.06331593250786938 -1.485381873877257 -1.2647973336413756 0 0 0
1876 605 1 -1.054 2.585649160717189 -0.84761443579362 -3.853989574281673 0 0 1
1505 481 2 0.527 6.492489254591565 -1.6441515703736158 -7.437588581924266 0 0 0
1773 570 2 0.527 6.03563553638147 -3.8814149452897926 -7.178035371416102 0 0 0
1772 570 2 0.527 5.1418022416056 -3.207449458232092 -6.15888710517197 0 0 0
1771 570 1 -1.054 6.029893114466695 -3.1905761661133445 -6.515508822801063 0 0 0
563 167 2 0.527 6.844114452768274 -4.622264586284967 -4.016920440069929 0 0 0
1392 443 2 0.527 3.2561306788406306 -8.43976837068746 -3.7378913845573063 0 0 0
1390 443 1 -1.054 3.876117599450602 -7.982695668075121 -4.306136565805765 0 0 0
1877 605 2 0.527 1.955075154946904 -0.8759468748682009 -3.1344221635399636 0 0 1
63 1 5 0.09 2.4957635645770324 -0.6026465514503556 -1.0656537299964617 0 0 0
62 1 3 0.05 1.4184552132350134 -0.6473117415618042 -0.8261684704256691 0 0 0
118 19 1 -1.054 7.08045251807027 -1.2539512664613932 -3.7059735962563263 0 0 0
562 167 1 -1.054 7.427462687666598 -4.00253777669117 -4.454924686032683 0 0 0
120 19 2 0.527 7.1655769498593145 -2.190631910161252 -3.8837783074682504 0 0 0
718 219 1 -1.054 0.23314513947242688 -5.599283569362241 -2.2062854600028885 0 0 0
699 212 2 0.527 7.1742657725460965 8.666223038817504 -0.003075200651890597 0 -1 0
1358 432 2 0.527 0.5669422906706174 -1.266162681627403 -7.2043221229707015 0 0 1
1357 432 1 -1.054 0.6334021930805136 -2.1929690374115243 -7.434201453889276 0 0 1
1697 545 2 0.527 0.009504078279547912 -5.817641186170728 -6.383239576161453 0 0 1
648 195 2 0.527 5.938449703951097 -2.736467682457927 0.44673101973135765 0 0 0
647 195 2 0.527 6.623365072156261 -3.9653120862121627 -0.11245589963402303 0 0 0
751 230 1 -1.054 3.8934392079660753 7.894104536596943 -8.225040779182574 0 0 1
753 230 2 0.527 4.710255719311242 7.578647136502864 -7.838419240023723 0 0 1
1523 487 2 0.527 4.169243325086789 -5.975519997095878 -7.569568745293457 0 0 0
1522 487 1 -1.054 4.659831984927358 -5.3398978611609005 -8.090646232032368 0 0 0
1391 443 2 0.527 4.592912419891945 -8.605057230193706 -4.428868940216473 0 0 0
1829 589 2 0.527 2.038894105944653 7.062560640726796 -2.9833804704719133 0 -1 1
1696 545 1 -1.054 0.36412275978985775 -6.626289762456315 -6.752773812853548 0 0 1
1239 392 2 0.527 2.1480105516161565 -2.8728891940826546 -8.316509326536695 0 0 0
1227 388 2 0.527 8.463393710101538 0.3350159672799915 -1.417960546592937 0 0 0
1984 641 1 -1.054 8.176654027889459 -4.681431126438617 0.9663230131299549 0 0 0
1763 567 2 0.527 7.189236744274055 -7.622555770675469 -2.9431882042746054 0 1 0
1764 567 2 0.527 7.606322445184492 8.421142681357916 -2.3056809724138434 0 0 0
1762 567 1 -1.054 7.889461928454256 -8.275148422840136 -2.9430021070542374 0 1 0
441 126 2 0.527 10.449809873380222 -5.313677296197514 -4.388629031760575 0 0 0
547 162 1 -1.054 10.387108130012276 -6.50813855698021 -2.3429084329493346 0 0 0
549 162 2 0.527 10.612957238011287 -6.982002255111506 -1.542487578452766 0 0 0
440 126 2 0.527 9.202099699682403 -4.602287297736279 -4.867077748350079 0 0 0
439 126 1 -1.054 9.878713337228962 -5.217071563377799 -5.150679777977495 0 0 0
761 233 2 0.527 15.155574962012107 -2.930483032399785 -5.503450525570782 0 0 0
807 248 2 0.527 11.33401169648845 -4.79302688226761 -1.9928703210625782 0 0 0
2074 671 1 -1.054 8.170925412079082 -1.4353861220248332 -1.3122969315332131 0 0 0
2076 671 2 0.527 7.565052715929664 -1.8550850646569454 -0.7015816229990577 0 0 0
806 248 2 0.527 11.261351166998917 -3.5774399386140328 -1.0934459257616513 0 0 0
805 248 1 -1.054 11.882691437643434 -4.1541459423573395 -1.5379091433615582 0 0 0
1014 317 2 0.527 9.797676477081826 -6.590933487729244 -6.48619886702732 0 1 0
2065 668 1 -1.054 10.572215799082468 -2.0363337458145425 0.08265290638286515 0 1 0
2067 668 2 0.527 11.058262498272729 -1.2286790840172674 -0.0836809214854668 0 1 0
198 45 2 0.527 13.556182712427617 -2.472506754348661 -4.050691841361776 0 1 0
1012 317 1 -1.054 9.563806197518307 -7.458000473741983 -6.817449833438936 0 1 0
196 45 1 -1.054 14.412809087017305 -2.816020145003857 -3.7969909679631453 0 1 0
2075 671 2 0.527 9.036258564076167 -1.74008068001846 -1.0392920634028435 0 0 0
197 45 2 0.527 14.943921708929611 -2.0372821043026823 -3.630570291196115 0 1 0
1013 317 2 0.527 9.214136142627328 -7.919747997411525 -6.055385788198438 0 1 0
1216 385 1 -1.054 9.920866898600739 7.909303814541017 -4.733986910674796 0 0 0
548 162 2 0.527 9.532523190544463 -6.857461363232928 -2.595556505447382 0 0 0
1218 385 2 0.527 10.804454888769268 7.784116571037734 -4.387907507490204 0 0 0
1217 385 2 0.527 9.389446164444035 8.117450447361948 -3.9655618178271386 0 0 0
1440 459 2 0.527 12.520441086457009 -6.707401688340754 -6.910066481488581 0 0 1
1986 641 2 0.527 9.0607999015742 -4.7924504774143495 1.315793750111002 0 0 0
2022 653 2 0.527 9.630556378345123 -2.916902140472274 -5.927311557423771 0 0 0
2021 653 2 0.527 10.863649245481195 -2.6890418696092873 -6.775448911256027 0 0 0
2020 653 1 -1.054 9.959637917231863 -2.3964121666307525 -6.660127669811965 0 0 0
1821 586 2 0.527 13.622618708799582 -2.95635409776753 -6.991822887826429 0 1 0
1819 586 1 -1.054 12.79434078996935 -3.329157409635698 -7.293732720002712 0 1 0
1439 459 2 0.527 12.615472358250347 -5.2730787054020585 -7.385020950842024 0 0 1
1438 459 1 -1.054 12.963938166508076 -6.149392794421182 -7.548934729605902 0 0 1
760 233 1 -1.054 15.323744645547645 -2.9492766517239115 -6.445573401484277 0 0 0
878 272 2 0.527 14.932936714454687 -6.64216059882298 -7.346451938293071 0 1 0
877 272 1 -1.054 15.852512531951088 -6.907235184762057 -7.329698609975638 0 1 0
2087 675 2 0.527 10.269307153961204 -0.644650768353328 -6.373118303531031 0 1 1
1812 583 2 0.527 11.379957639768019 -1.13188504539644 -2.979218142131563 0 0 0
2066 668 2 0.527 10.690082152851712 -2.198949831288161 1.0185454564616006 0 1 0
2147 695 2 0.527 9.486927176529239 8.390692557949217 7.605995432382075 0 -1 -1
1994 644 2 0.527 -22.530609940297765 -4.471774122181794 7.685139974684015 1 1 -1
762 233 2 0.527 15.754350214652785 -3.7908489673452532 -6.595743726766652 0 0 0
1677 538 2 0.527 16.064205370724718 -7.204999738489856 -0.453702178939011 0 0 0
1943 627 2 0.527 15.272290119743925 -4.431181652317064 -3.138212654926966 0 1 0
1944 627 2 0.527 16.104387671982064 -5.477730509492485 -2.4281492024985845 0 1 0
1942 627 1 -1.054 16.068131338384152 -4.955132871974948 -3.2292795662201303 0 1 0
558 165 2 0.527 21.841243193695487 -7.25710316273066 -2.6164626675045186 0 1 0
945 294 2 0.527 22.319169426207313 -0.27365813118802507 -6.173861048795555 -1 0 1
534 157 2 0.527 17.18086786558629 -6.220259949582075 -4.524896567809253 0 0 0
1343 427 2 0.527 20.46947434818188 -0.3801511847530019 -3.1600274576262555 0 0 0
1675 538 1 -1.054 16.56326815968814 -6.549340374491948 -0.9407942901031792 0 0 0
532 157 1 -1.054 17.672679217391465 -6.6931212720533955 -5.196266045517899 0 0 0
1047 328 2 0.527 17.086775291339702 -0.8467744825208232 -3.20754262510183 0 0 0
1045 328 1 -1.054 16.91027234338573 -1.0572480731458143 -4.124482190325203 0 0 0
533 157 2 0.527 17.0773822264746 -6.735621424266768 -5.9446107656526745 0 0 0
285 74 2 0.527 17.78243051178185 -2.5736952836866784 -4.807811891182339 0 0 0
283 74 1 -1.054 18.163295290526694 -3.4295351819671342 -4.611086579878257 0 0 0
284 74 2 0.527 17.425869465675266 -3.9546988572942823 -4.300290475636079 0 0 0
1599 512 2 0.527 22.6623400766703 -3.0860734611413303 -0.9210983616447379 0 1 0
155 31 2 0.527 20.395109827989092 -3.0363399570842553 -2.49902470755071 0 0 1
154 31 1 -1.054 20.086012581983663 -3.60096633568879 -1.7905896738817297 0 0 1
156 31 2 0.527 20.628575247519844 -3.3619782136260543 -1.0391122472122571 0 0 1
1598 512 2 0.527 22.718215124520793 -1.633192695252573 -0.4993021699782929 0 1 0
1597 512 1 -1.054 22.39509397640914 -2.490228442181012 -0.2212594633375531 0 1 0
2091 676 2 0.527 20.218116349186783 -5.489264912668992 -2.544719595620311 0 1 0
2090 676 2 0.527 19.600239107606992 -6.853172119781562 -2.7679850058843263 0 1 0
2089 676 1 -1.054 20.269645662087147 -6.260348362709291 -3.109526756488319 0 1 0
642 193 2 0.527 21.29852293217645 -5.28227382774155 -6.06241463021094 0 0 1
235 58 1 -1.054 20.450549771150687 -2.0780104199296723 -3.880201669923066 0 0 0
236 58 2 0.527 21.023642574216925 -2.247241245614818 -4.627952892412506 0 0 0
237 58 2 0.527 19.607419312334255 -2.453135820535966 -4.134339587120519 0 0 0
640 193 1 -1.054 21.79654643800716 -5.580162856209269 -5.301200717524279 0 0 1
78 5 2 0.527 19.313303781639423 -4.5574482134159595 -6.284963678506666 -1 0 1
641 193 2 0.527 21.138780131669147 -5.955911883919245 -4.7160910081195935 0 0 1
76 5 1 -1.054 19.873820840230035 -4.434804728834939 -7.051113690222004 -1 0 1
77 5 2 0.527 19.55299368859181 -5.073391906942799 -7.687904675649509 -1 0 1
1835 591 2 0.527 18.327676313009224 -2.353574833260125 -1.711845960869434 0 0 0
1834 591 1 -1.054 17.730861269558023 -1.9054103078657807 -1.1125434931095484 0 0 0
649 196 1 -1.054 18.792695312844085 -7.939932815952211 -1.5917599375068567 0 1 0
943 294 1 -1.054 22.512552615317748 -1.1996954516408387 -6.319762217724265 -1 0 1
944 294 2 0.527 22.02601327270671 -1.4244140882561744 -7.112854711229173 -1 0 1
650 196 2 0.527 18.003254006986356 -7.628069061010496 -1.149372667241133 0 1 0
1836 591 2 0.527 18.21804268431232 -1.1351372378204303 -0.8200585788761803 0 0 0
1224 387 2 0.527 -22.689644678737444 -8.295571721696783 -6.454732141613134 1 1 0
1632 523 2 0.527 17.577242113873442 -1.5895472039716898 8.036745011110385 0 0 0
1931 623 2 0.527 15.743401078908729 -1.2209184181320243 -7.17523120988667 0 0 0
1344 427 2 0.527 19.977200374836638 0.7563824429315389 -2.28948957486746 0 0 0
1342 427 1 -1.054 20.65747831233055 0.5279609657565096 -2.9229255448007194 0 0 0
1676 538 2 0.527 16.72565814589988 -5.851255583204667 -0.3063355687746441 0 0 0
1046 328 2 0.527 17.018760229375733 -0.22607971778137248 -4.58667551725087 0 0 0
1930 623 1 -1.054 15.92460131426829 -0.37676667216852167 -7.58851455688862 0 0 0
879 272 2 0.527 16.275660201270856 -6.3468867739605095 -7.980217410468072 0 1 0
1809 582 2 0.527 20.0674434615873 -1.354499876525245 -8.36066680017759 -1 0 1
1808 582 2 0.527 20.489001240755993 -2.808019037032505 -8.322563593365206 -1 0 1
406 115 1 -1.054 19.49906883499654 -6.200720349159388 8.28778281890178 -1 1 0
407 115 2 0.527 20.006515863175455 -6.9748948153067385 8.531426675013615 -1 1 0
1153 364 1 -1.054 19.487177336900128 0.13669044228166527 0.5979288675114223 0 0 0
1154 364 2 0.527 19.64440430444348 1.0407971982140953 0.32571366669494317 0 0 0
1946 628 2 0.527 -17.22017675564269 8.256998370847233 -1.5775616582509402 1 0 0
1945 628 1 -1.054 -16.644868850716794 7.512178498710975 -1.4030054893576223 1 0 0
489 142 2 0.527 -19.601639377855008 1.2990093079594764 -4.413996085329483 1 0 0
1026 321 2 0.527 -17.312178561475196 1.2614748233820023 -1.2109829893986985 0 0 0
1751 563 2 0.527 -18.406844323500987 2.7274906088971775 -6.545311578637971 0 0 0
1024 321 1 -1.054 -16.844601118168054 1.2772176732655982 -2.0460518511778503 0 0 0
1750 563 1 -1.054 -18.57362278302588 1.874398552308966 -6.144501667296738 0 0 0
1908 615 2 0.527 -17.139732709946248 2.510545197141978 -3.224647510614351 0 0 0
1752 563 2 0.527 -18.532227601196045 1.2547925184537778 -6.872929495124412 0 0 0
2115 684 2 0.527 -20.36592931474327 2.8557806688712724 -2.784953329411384 0 0 0
2113 684 1 -1.054 -20.142252805513596 3.3500827918451623 -1.9963699812831015 0 0 0
210 49 2 0.527 -22.36411626967838 1.7459219240561925 -0.596678626475887 0 0 0
1623 520 2 0.527 -20.710086589369592 7.64692678524945 -7.675788582186272 0 0 0
1621 520 1 -1.054 -20.067491333804238 8.24328249110493 -7.291559623550947 0 0 0
1546 495 1 -1.054 -21.825887296575864 6.0476484681368685 -5.702356982316453 0 -1 0
992 310 2 0.527 22.473257015854198 4.2571196689254105 -7.663097688181273 0 0 0
348 95 2 0.527 -18.8098916685528 4.827612651727062 -1.9085832831176788 1 0 0