ITEM: TIMESTEP
0
ITEM: NUMBER OF ATOMS
1200
ITEM: BOX BOUNDS pp pp pp
0.0000000000000000e+00 1.0000000000000000e+02
0.0000000000000000e+00 1.0000000000000000e+02
0.0000000000000000e+00 1.0000000000000000e+02
ITEM: ATOMS id x y z
814 54.8303 12.6859 0.946477
815 53.4786 14.7561 0.576644
816 52.1269 16.8264 0.206812
408 3.46096 33.5734 0.207782
407 5.61598 34.7093 0.769455
406 7.77099 35.8453 1.33113
343 18.0332 44.3819 0.370519
344 20.3563 45.1605 0.867712
345 22.6793 45.9392 1.36491
1044 13.5081 58.7453 0.534099
1043 15.9373 59.2989 0.741343
1042 18.3664 59.8524 0.948588
867 10.8162 72.9011 0.230194
358 7.56768 11.9456 1.66233
359 5.72558 13.4285 2.47335
754 21.3509 14.0257 1.97368
755 23.638 13.1159 2.41092
292 84.5869 31.3026 2.01218
820 28.2189 35.9632 2.32965
151 8.82913 48.9956 2.65104
152 6.67934 50.2649 2.52003
153 4.52956 51.5343 2.38901
67 91.2935 59.1271 1.60779
866 11.6229 71.5648 2.18306
487 38.54 81.0762 2.17901
488 40.6667 82.3193 2.60543
415 14.6262 96.4204 1.57632
1110 18.8635 6.52845 3.58445
1109 21.3233 6.91774 3.36623
1108 23.7832 7.30704 3.14802
312 96.4641 7.6564 3.98494
546 3.21744 9.25268 3.53893
311 95.2341 9.82156 4.20663
756 25.9252 12.2062 2.84815
360 3.88348 14.9114 3.28437
293 84.1588 33.608 2.87915
822 32.7667 34.7577 4.02203
821 30.4928 35.3604 3.17584
294 83.7307 35.9135 3.74612
619 60.5593 40.789 3.11289
480 6.29056 44.7739 4.20929
691 48.3235 55.1842 3.83092
692 50.3496 56.6172 3.52868
693 52.3757 58.0502 3.22645
68 93.3404 58.6646 2.96662
390 31.0049 66.5979 3.82909
187 80.8428 68.9493 3.25236
865 12.4296 70.2286 4.13593
188 79.9169 71.2705 3.32063
189 78.9911 73.5917 3.38889
489 42.7935 83.5623 3.03186
416 14.6765 95.1213 3.71165
1077 90.4902 97.8333 3.02542
1075 85.861 99.6825 3.41427
1076 88.1756 98.7579 3.21984
545 2.57427 10.655 5.50608
310 94.0041 11.9867 4.42832
72 52.5785 31.7918 4.7772
620 60.0607 40.7782 5.56264
479 8.76437 44.5247 4.47038
478 11.2382 44.2755 4.73147
988 95.705 47.9638 4.24259
989 94.8224 50.1553 5.05995
202 45.5649 57.4363 5.25037
203 47.4941 59.0255 5.29939
69 95.3872 58.202 4.32546
204 49.4233 60.6148 5.34842
389 32.4162 65.3242 5.45263
622 32.049 89.8692 4.58307
623 33.8322 91.6211 4.61812
624 35.6153 93.373 4.65316
71 52.5133 29.7722 6.24925
162 44.694 50.0422 6.80225
990 93.9398 52.3469 5.87732
1119 39.4611 62.6876 5.70118
712 17.6623 88.6595 6.13295
713 20.0626 89.3546 6.05935
714 22.4629 90.0497 5.98575
417 14.7267 93.8221 5.84699
703 14.0994 10.2464 7.59254
544 1.93109 12.0574 7.47323
70 52.4482 27.7526 7.72129
621 59.5621 40.7675 8.01239
161 47.1743 49.9208 7.09089
160 49.6546 49.7995 7.37953
1118 37.7886 63.0139 7.53045
380 47.3816 62.6677 8.06642
388 33.8276 64.0505 7.07617
381 49.3071 64.0405 7.25538
651 11.5477 71.1984 8.32599
976 40.014 83.5925 7.31406
704 13.3788 12.2868 8.84467
517 52.9419 17.0543 8.99772
6 40.4003 35.7825 8.82743
379 45.4561 61.2948 8.87745
1117 36.116 63.3402 9.35972
1058 89.5534 65.6409 9.69556
1057 91.125 67.3555 8.77904
977 41.6328 83.0118 9.12852
508 89.8048 84.1276 9.29577
509 87.9874 85.8438 9.33978
510 86.1701 87.56 9.38378
1135 78.2381 3.77658 11.0915
705 12.6583 14.3271 10.0968
519 48.9051 15.1016 11.2094
518 50.9235 16.0779 10.1035
5 39.2433 36.4613 10.937
313 79.1408 57.5202 11.1493
314 81.5305 58.1897 10.8473
315 83.9201 58.8593 10.5452
1059 87.9818 63.9262 10.6121
650 13.0524 70.7457 10.2705
465 71.7308 77.6594 10.6421
978 43.2516 82.4311 10.943
493 12.7813 89.9841 11.0631
494 11.7986 92.2796 10.9407
154 5.10694 95.0672 10.1469
495 10.8158 94.5751 10.8183
490 75.6755 95.4426 9.96102
1136 80.3941 2.78334 11.8758
1137 82.5501 1.79009 12.6601
608 63.135 10.6498 12.3514
609 65.582 10.3896 11.9102
811 82.5984 50.3969 12.5415
649 14.5571 70.2931 12.215
895 90.6776 77.1085 12.2633
897 85.8305 78.1939 11.6915
896 88.254 77.6512 11.9774
464 70.2455 78.8992 12.2253
156 0.909373 93.5761 12.4178
155 3.00815 94.3217 11.2824
491 76.2066 94.08 11.9886
669 62.163 95.0017 11.7087
474 82.5531 94.5855 11.8348
607 60.6881 10.9101 12.7925
826 6.67896 17.8658 13.0965
827 7.40401 20.1085 13.93
4 38.0862 37.1401 13.0467
813 78.5169 47.7597 13.7189
812 80.5576 49.0783 13.1302
1106 51.29 67.4574 13.8682
1052 78.2647 66.9736 13.6427
1051 80.5883 66.3503 12.9627
372 9.7944 68.2176 13.3596
1105 51.4032 69.765 12.9131
463 68.7602 80.1391 13.8086
1128 3.90148 84.9273 13.2563
1127 5.574 86.6308 13.9984
492 76.7377 92.7173 14.0162
473 82.4504 92.8438 13.6253
1182 72.4032 95.7661 13.5144
1181 74.0204 97.6724 13.5347
1180 75.6377 99.5788 13.555
828 8.12905 22.3512 14.7635
123 78.8712 49.8869 15.2911
1032 32.3975 53.1802 15.3394
351 55.9457 53.5415 15.4067
1031 30.7341 55.0455 15.2812
1030 29.0707 56.9109 15.223
1107 51.1768 65.1499 14.8233
385 1.49329 66.3138 15.433
371 8.1266 66.7218 14.4692
1053 75.9411 67.5969 14.3227
1126 7.24652 88.3343 14.7405
472 82.3478 91.1021 15.4158
668 61.8944 95.6169 14.1169
566 31.3036 8.2388 16.7796
567 33.0477 10.0163 16.5589
507 82.4341 14.5346 16.5744
135 64.8308 17.2054 16.8366
134 64.5544 19.69 16.8181
496 87.6954 21.1187 15.7504
133 64.278 22.1746 16.7996
497 88.4092 23.3936 16.5024
594 71.6971 44.2719 16.2674
593 72.7908 46.4676 16.7502
121 80.9945 45.4616 16.2442
122 79.9329 47.6743 15.7677
382 57.7008 48.7397 15.9374
1089 26.6331 62.9023 16.808
370 6.45881 65.2261 15.5788
386 3.24021 67.4167 16.8408
1000 52.5833 91.6393 15.9337
139 55.6849 93.1284 16.8179
396 80.3488 93.676 16.0005
395 82.8343 93.9015 16.1482
394 85.3197 94.1269 16.2958
667 61.6259 96.2321 16.5251
639 73.7649 1.64707 17.611
638 75.1434 3.71125 17.9091
565 29.5595 6.46133 17.0003
637 76.5219 5.77544 18.2071
506 81.4841 16.6704 17.4609
498 89.123 25.6684 17.2545
222 5.89497 27.9821 17.1009
592 73.8844 48.6633 17.2329
383 57.6649 50.905 17.1865
350 55.5798 52.1508 17.4516
387 4.98712 68.5196 18.2486
1155 40.3313 71.8905 17.9056
486 56.0447 74.5774 17.5991
1001 51.3062 92.6529 17.8288
456 73.924 15.3923 19.2883
455 76.354 15.9532 19.4626
454 78.784 16.5141 19.637
505 80.5341 18.8062 18.3474
221 4.02369 28.0618 18.7568
349 55.2139 50.7601 19.4966
384 57.629 53.0703 18.4355
1088 26.8322 62.7078 19.2924
53 90.5582 66.0697 19.453
1153 40.9616 67.0521 18.9978
52 90.2673 68.372 18.5231
1154 40.6465 69.4713 18.4517
909 81.2335 91.8164 18.6133
908 80.5342 94.2151 18.6978
140 56.1115 94.5099 18.8573
907 79.835 96.6138 18.7824
169 31.9049 98.4279 18.4205
170 34.2716 99.0672 18.9106
171 36.6382 99.7066 19.4008
232 73.0216 2.43003 20.9196
819 14.5888 20.5414 20.8521
196 47.1835 23.5775 20.8411
220 2.1524 28.1416 20.4127
916 53.6863 47.397 20.9699
54 90.849 63.7674 20.3829
485 55.3334 73.8928 19.8959
1152 30.0246 77.2246 20.945
273 70.4998 92.9569 20.9
1002 50.0292 93.6666 19.724
1104 67.3669 94.4304 20.807
141 56.5382 95.8915 20.8968
233 70.8839 1.74166 22.018
818 16.2803 18.9288 21.74
198 42.3945 22.7368 22.0066
197 44.789 23.1572 21.4239
918 53.7475 42.4281 21.5231
917 53.7169 44.9125 21.2465
1087 27.0313 62.5134 21.7769
484 54.622 73.2081 22.1927
234 68.7462 1.0533 23.1164
216 6.9244 12.2803 23.4081
856 87.0832 11.7112 23.5715
817 17.9719 17.3163 22.628
799 53.7673 29.4021 23.4688
948 71.3829 76.7134 22.8988
1151 30.1793 77.7552 23.3832
1120 6.08439 86.0722 23.0896
1121 8.34754 87.1334 23.0458
1122 10.6107 88.1947 23.002
272 68.8405 92.5051 22.7146
1103 67.4481 95.736 22.9374
1090 33.5847 97.0661 23.3132
1091 35.9371 97.8418 23.6507
857 85.4328 13.4467 24.2888
858 83.7824 15.1821 25.0061
801 51.6547 24.9822 24.4693
800 52.711 27.1921 23.969
1038 73.1783 31.4732 24.6766
947 72.236 76.8966 25.2415
66 10.7396 82.2713 25.1328
271 67.1813 92.0532 24.5292
1102 67.5293 97.0417 25.0679
1092 38.2896 98.6176 23.9882
531 64.5529 3.8583 26.7496
215 6.10652 12.7262 25.7281
750 6.75477 46.2658 26.4376
926 77.5026 51.9505 26.75
925 77.1621 54.154 25.6193
883 73.1363 62.5144 26.6798
1123 17.1911 76.6828 25.823
1124 19.57 76.3893 26.5337
64 14.0052 78.5748 25.9526
1150 30.334 78.2857 25.8213
65 12.3724 80.423 25.5427
530 66.5773 4.66696 27.9735
214 5.28864 13.1721 28.0481
1037 73.7376 30.598 26.9506
985 85.0488 30.3544 27.6631
333 11.3711 36.51 27.9267
332 13.473 37.7353 27.3518
331 15.5749 38.9606 26.7768
749 8.39228 47.0969 28.134
927 77.8431 49.747 27.8808
961 50.3717 57.6478 26.867
270 49.2052 65.5448 27.421
269 47.1169 66.9004 27.1937
268 45.0287 68.2559 26.9665
1125 21.9488 76.0959 27.2443
946 73.0891 77.0798 27.5843
529 68.6017 5.47563 29.1975
901 10.3065 9.97611 28.5782
400 38.0435 25.3673 28.8649
401 36.0262 26.8116 29.1722
402 34.0089 28.256 29.4795
987 80.5196 29.3268 29.5154
1036 74.2969 29.7227 29.2246
986 82.7842 29.8406 28.5893
861 21.4514 54.5076 29.1185
962 49.2649 57.6804 29.1084
884 74.871 63.1381 28.3685
880 7.49451 68.4992 28.7391
762 39.6662 69.767 28.3722
881 5.9903 70.4957 28.7725
882 4.48609 72.4923 28.806
37 20.5914 89.9019 28.3301
138 92.43 95.792 28.7049
76 72.4219 4.87155 30.2484
903 8.70116 5.71226 30.6378
902 9.50385 7.84419 29.608
1195 6.24792 16.7245 30.7214
418 55.7607 32.7979 30.6083
543 44.4756 46.933 30.9656
748 10.0298 47.9279 29.8305
542 43.3623 49.169 30.8614
736 11.8394 50.4986 30.8762
541 42.2491 51.405 30.7571
885 76.6057 63.7618 30.0572
1056 8.86379 67.4813 30.4499
761 39.6558 67.7313 29.8234
1055 8.36674 69.8953 30.8692
27 29.7905 74.1184 29.8895
26 27.6275 75.322 30.24
25 25.4645 76.5255 30.5905
38 18.8316 89.5971 30.0795
137 91.7689 94.601 30.8012
1197 1.59432 15.417 31.9998
1196 3.92112 16.0708 31.3606
419 54.5667 31.4207 32.3194
833 85.8605 35.1997 31.6592
832 87.9364 33.826 31.8905
834 83.7846 36.5734 31.4278
142 25.4358 37.4231 32.3223
143 23.4585 38.9173 31.9937
144 21.4813 40.4114 31.6652
737 10.2765 52.336 31.5329
738 8.71353 54.1734 32.1895
860 22.7558 54.5025 31.2512
963 48.1581 57.713 31.3498
244 8.85228 61.3027 31.1754
397 31.1134 63.3864 31.858
760 39.6454 65.6957 31.2747
291 25.7841 68.5101 31.6092
1054 7.86969 72.3092 31.2886
39 17.0719 89.2923 31.8289
657 13.8425 92.2177 32.2272
77 73.0801 5.94571 32.4078
859 24.0602 54.4975 33.3839
245 9.89525 61.685 33.4151
398 33.4512 63.5168 32.7342
399 35.789 63.6471 33.6103
532 15.2146 77.5537 33.6078
559 42.1625 82.5099 32.3946
560 44.6065 82.2029 32.8221
561 47.0505 81.896 33.2496
655 8.86431 92.5393 32.5652
656 11.3534 92.3785 32.3962
136 91.1079 93.4099 32.8975
625 97.4749 4.60067 34.0505
78 73.7384 7.01986 34.5671
626 98.6592 6.7995 33.9384
627 99.8435 8.99834 33.8263
303 48.8579 11.2096 35.1894
412 83.7684 12.7563 34.8249
100 85.7632 18.7472 34.7875
588 58.9056 24.483 34.3203
587 60.4784 26.409 34.0624
586 62.0512 28.3351 33.8045
420 53.3726 30.0436 34.0304
1111 69.1267 37.3354 34.7586
109 97.3462 38.2502 34.5648
110 98.3464 40.5262 34.8282
111 99.3466 42.8022 35.0917
290 25.6301 69.2738 33.9847
708 68.9889 76.8098 34.7149
707 71.482 76.8734 34.8899
706 73.9751 76.9369 35.065
675 2.04031 89.8499 34.3505
1078 26.9533 2.17433 36.0118
1079 25.0958 3.84317 35.89
1080 23.2384 5.51201 35.7682
302 47.1426 12.8865 35.8935
413 82.3702 14.0231 36.4651
301 45.4272 14.5633 36.5975
101 84.7832 17.3042 36.5786
855 83.0434 32.7515 36.5286
955 36.9856 35.4967 36.3599
1112 68.1511 39.5132 35.5037
1113 67.1756 41.691 36.2489
355 94.2697 41.0703 36.5292
246 10.9382 62.0674 35.6547
528 85.654 62.4089 36.5975
616 37.9597 66.2687 35.876
289 25.4762 70.0375 36.3603
874 33.9232 72.081 35.9406
1027 36.2072 77.2079 35.7602
533 15.7488 78.7284 35.749
1028 33.9222 78.2012 35.9655
1029 31.6373 79.1946 36.1709
433 64.3558 83.0371 36.0813
673 4.2352 85.7104 36.0961
674 3.13775 87.7802 35.2233
276 3.23272 4.89171 37.6517
854 85.4289 32.7471 37.2766
853 87.8144 32.7426 38.0246
357 96.1977 36.5108 37.2316
956 36.5539 37.3362 37.9969
1098 40.8365 36.745 37.7387
356 95.2337 38.7905 36.8804
787 87.4235 48.5558 38.0019
526 81.8771 59.2043 37.2801
527 83.7655 60.8066 36.9388
617 36.9397 68.4253 36.6235
875 33.3464 70.6747 37.9254
618 35.9198 70.5818 37.3711
534 16.2831 79.9031 37.8903
330 64.7261 9.83136 38.2584
329 64.275 12.208 38.8894
414 80.972 15.2898 38.1053
102 83.8033 15.8613 38.3696
945 80.9781 28.0875 38.9886
768 13.2712 31.4687 39.369
767 11.9985 33.6091 39.1473
766 10.7258 35.7494 38.9256
352 62.0479 44.2511 38.7064
353 64.2156 45.4301 39.1081
324 26.8036 48.2934 38.6247
323 24.6446 49.3588 39.2985
788 86.7987 50.8351 38.8169
1072 37.4936 64.7151 38.6186
1158 45.1502 66.62 38.2201
1157 43.0753 67.7542 39.0314
434 62.894 82.9006 38.1048
1035 45.8023 87.9386 39.376
457 56.6873 95.4585 38.3287
275 2.59344 3.32091 39.4885
328 63.8239 14.5846 39.5205
944 82.6975 28.4601 40.7648
520 48.2872 36.6144 40.4278
3 76.3495 36.1768 39.6454
1097 42.4085 36.9943 39.6666
521 46.1512 37.825 39.9568
2 74.2093 36.9692 40.6662
957 36.1222 39.1757 39.634
522 44.0153 39.0357 39.4857
354 66.3832 46.6091 39.5097
322 22.4857 50.4241 39.9722
789 86.1739 53.1145 39.6319
846 18.904 56.5814 40.7781
1074 41.3582 62.3687 40.7539
1073 39.4259 63.5419 39.6863
181 37.4088 67.5635 40.7651
1156 41.0005 68.8885 39.8428
876 32.7695 69.2683 39.9102
182 36.629 69.8785 40.2332
183 35.8491 72.1934 39.7012
435 61.4321 82.7641 40.1282
1033 48.339 83.6348 39.5822
1034 47.0707 85.7867 39.4791
459 53.3671 92.4837 40.593
458 55.0272 93.9711 39.4609
274 1.95416 1.7501 41.3253
914 30.5147 5.61415 42.0316
913 32.7026 4.40488 42.0038
915 28.3268 6.82342 42.0594
849 62.5715 22.1484 40.9543
848 64.3702 23.8558 41.2698
847 66.1688 25.5633 41.5852
1096 43.9805 37.2436 41.5945
1 72.0691 37.7615 41.6869
763 48.226 51.2625 42.042
764 50.6806 51.6735 41.8053
765 53.1352 52.0845 41.5686
845 20.9628 55.9223 42.0339
513 10.9869 73.8685 41.9179
82 61.1566 92.966 40.9143
83 60.3926 95.2466 41.5963
159 36.2634 96.7719 41.397
943 84.4169 28.8327 42.541
628 78.7048 43.5206 43.3132
844 23.0215 55.2631 43.2897
512 8.61765 74.3352 42.565
511 6.24839 74.8019 43.2122
158 36.9274 94.9279 42.949
84 59.6286 97.5272 42.2784
727 3.3362 15.4229 44.0728
808 1.26755 29.4571 45.0236
809 3.04608 31.214 45.0391
810 4.8246 32.9708 45.0546
630 82.9093 41.0268 44.3632
629 80.807 42.2737 43.8382
556 45.8569 49.4251 43.6659
568 59.24 62.4973 44.5154
75 21.1641 69.952 43.822
157 37.5913 93.0839 44.5011
904 97.0632 97.0411 44.4422
728 2.51165 17.0646 45.7684
663 48.533 41.0538 46.2858
557 45.0631 47.8017 45.3935
569 57.425 62.3967 46.2316
309 37.6787 65.4484 46.0258
74 22.2807 68.9024 45.7973
88 53.6025 75.3218 45.5484
89 56.0967 75.2682 45.3865
90 58.5909 75.2147 45.2246
535 94.0101 86.5811 46.0233
536 96.4137 87.2501 45.8656
537 98.8174 87.919 45.7078
905 94.9334 98.0923 45.2225
906 92.8036 99.1435 46.0028
729 1.68711 18.7063 47.4639
558 44.2693 46.1783 47.1211
367 23.6902 47.9115 47.0294
307 38.3969 60.6292 47.1483
308 38.0378 63.0388 46.5871
36 15.1882 68.4147 47.6172
73 23.3972 67.8528 47.7725
717 50.1415 88.9248 46.5297
949 27.2523 95.3128 47.0963
685 34.5192 5.40069 48.8134
686 37.0158 5.34114 48.6982
687 39.5125 5.28159 48.5829
281 28.3263 5.70531 48.8542
280 29.1065 7.9982 48.2346
393 53.9867 17.1195 48.8025
238 61.3321 23.2748 48.9446
662 47.8356 40.7762 48.6705
368 25.2631 47.0671 48.7796
1065 33.4977 60.8353 49.1116
570 55.6099 62.2962 47.9478
34 19.8601 67.4711 49.1282
35 17.5241 67.9429 48.3727
346 36.6128 68.6072 48.5238
1101 71.7124 76.0683 49.0381
1100 73.2814 77.9977 49.2949
716 50.2872 90.8731 48.0895
950 27.6779 93.1165 48.2121
282 27.546 3.41242 49.4738
239 60.2994 21.2556 49.9966
106 48.5139 27.0306 49.7689
975 41.3152 32.9778 49.9458
97 91.6973 33.4203 49.56
369 26.836 46.2228 50.5297
195 71.246 51.7706 50.4299
194 69.4802 53.5396 50.4811
193 67.7145 55.3086 50.5324
1064 32.0627 62.7898 49.7203
1063 30.6278 64.7444 50.3289
48 94.3048 64.0879 49.9963
347 35.9854 70.8573 49.4146
348 35.358 73.1074 50.3053
1099 74.8503 79.9271 49.5517
603 36.193 81.6592 50.5593
951 28.1035 90.9202 49.3279
715 50.4329 92.8214 49.6493
392 53.5315 17.8459 51.151
240 59.2666 19.2365 51.0485
107 47.212 27.1396 51.9004
973 45.4386 30.8484 51.8067
974 43.3769 31.9131 50.8762
98 92.9137 35.006 51.062
661 47.1381 40.4986 51.0551
46 96.8415 60.1439 51.7312
47 95.5731 62.1159 50.8637
601 35.509 76.7409 51.1444
602 35.851 79.2 50.8519
751 69.0228 81.25 50.9163
298 68.2799 4.91053 52.814
778 88.2123 5.9465 52.4655
779 86.4202 7.68208 52.6273
780 84.6281 9.41766 52.7891
391 53.0764 18.5724 53.4994
1046 67.0189 22.3698 53.3614
1047 68.3183 24.1911 52.246
51 59.2277 29.853 53.32
50 59.5431 32.3297 53.1921
49 59.8586 34.8064 53.0641
99 94.1301 36.5917 52.564
555 67.5517 45.2421 53.0741
968 93.5176 75.0419 53.044
967 91.5757 76.3825 52.2182
582 97.1257 76.3579 52.1728
1146 93.7738 79.6879 53.1367
752 69.2628 80.9127 53.3818
786 75.5109 91.9469 52.1681
785 76.6409 94.1563 52.4713
784 77.7709 96.3657 52.7744
299 69.9146 4.27913 54.5971
654 31.0417 19.2673 54.8353
1045 65.7194 20.5484 54.4768
342 71.3902 23.7305 53.9872
1164 85.3718 24.1058 53.8735
1163 87.7512 24.7786 54.2421
341 69.8438 25.6936 54.0568
1162 90.1305 25.4513 54.6108
108 45.9101 27.2487 54.0318
340 68.2973 27.6566 54.1265
554 69.2844 46.0523 54.6839
670 28.7777 49.0913 54.6046
255 32.068 66.6008 54.0637
254 30.9243 68.7923 54.4368
253 29.7805 70.9838 54.8099
969 95.4595 73.7014 53.8698
581 96.6847 77.3322 54.4324
1069 90.843 97.7176 54.5162
688 26.8553 16.0453 55.9396
33 37.9864 16.81 55.1982
32 38.1748 19.1062 56.1687
653 29.0204 20.7317 54.9763
652 26.9991 22.196 55.1173
1188 62.0437 27.549 56.2263
327 65.0063 40.1969 55.9894
585 83.8844 41.1053 56.1528
326 66.2526 42.3633 55.9314
584 83.754 43.6018 56.1771
325 67.4989 44.5298 55.8735
583 83.6235 46.0983 56.2014
553 71.0171 46.8626 56.2936
231 76.8076 60.2237 55.7023
230 78.9105 61.4556 56.2593
634 14.1261 67.2912 55.2056
336 71.964 73.0805 55.5127
1145 93.9911 78.1516 55.0969
753 69.5027 80.5755 55.8473
843 15.4299 84.5639 56.2189
256 78.6983 90.0278 55.5351
730 60.0904 92.8652 55.9483
1070 89.3851 96.7375 56.295
300 71.5492 3.64773 56.3801
689 27.221 14.0349 57.3799
31 38.3633 21.4025 57.1391
863 97.5146 24.8773 57.4928
862 96.1111 26.8215 56.7854
1187 63.7469 29.2877 56.7975
1186 65.4501 31.0264 57.3687
671 27.3602 48.2762 56.4958
267 64.6457 61.9794 57.293
229 81.0134 62.6875 56.8162
635 13.9057 65.8576 57.2418
1068 25.1119 65.9069 56.5062
335 70.5906 74.5018 57.0436
1144 94.2085 76.6153 57.0571
580 96.2436 78.3066 56.6921
579 4.47269 78.9994 57.1934
997 8.21771 86.5996 56.5368
842 16.861 86.5634 56.6705
841 18.2921 88.5629 57.1221
257 77.1622 91.6483 56.6596
838 0.644136 10.8395 58.7749
690 27.5867 12.0245 58.8202
864 98.9181 22.9331 58.2001
971 49.2396 28.5407 59.0655
970 51.5126 29.2433 58.2977
132 11.942 44.5058 58.6393
891 29.0227 45.0077 58.6083
131 13.4623 46.4687 58.3468
672 25.9427 47.4611 58.3869
890 28.5329 47.4462 58.8614
130 14.9827 48.4316 58.0543
889 28.0432 49.8846 59.1145
339 9.01079 62.7212 58.6743
1066 26.8967 62.005 59.0733
266 66.9173 62.3638 58.2637
219 71.8911 63.0931 58.6688
1067 26.0043 63.956 57.7897
218 73.5194 64.9901 58.6614
217 75.1477 66.8871 58.6539
924 55.7578 68.4253 58.2155
334 69.2172 75.923 58.5745
578 6.17065 79.8763 58.8053
199 39.0836 80.4721 58.8287
200 41.4951 81.1269 58.7517
201 43.9066 81.7817 58.6748
998 9.31864 85.1934 58.2863
731 60.1876 93.3559 58.3978
258 75.6261 93.2687 57.7842
1071 87.9273 95.7575 58.0738
1086 19.1695 16.0995 60.1454
10 87.5789 26.1605 60.3154
972 46.9665 27.8381 59.8334
802 68.6296 50.9314 59.5854
803 68.8855 53.3751 60.0469
804 69.1413 55.8188 60.5084
774 37.7469 60.282 60.5129
265 69.1888 62.7481 59.2344
636 13.6853 64.424 59.278
923 54.3069 67.9494 60.195
114 30.6145 69.6477 59.1701
1159 77.8698 72.1411 60.563
1060 54.9005 74.8674 59.7228
1061 56.8212 76.4522 59.9448
1062 58.742 78.0369 60.1668
577 7.8686 80.7532 60.4171
999 10.4196 83.7872 60.0357
839 1.51631 11.0945 61.1039
11 88.3509 28.5084 60.6913
12 89.1229 30.8563 61.0673
237 0.224733 53.6154 60.9702
338 7.9055 61.8508 60.7408
790 29.5068 61 61.6256
936 45.2684 62.0738 61.5192
113 29.9156 68.3631 61.1977
471 68.3216 74.4244 61.0101
732 60.2849 93.8467 60.8472
1085 19.8896 16.425 62.5172
1093 45.9321 31.9355 62.8762
236 1.69163 53.3475 62.9768
791 30.472 59.0294 62.8236
337 6.8002 60.9803 62.8074
773 37.8222 61.7174 62.5584
935 43.4555 63.7097 62.055
934 41.6425 65.3455 62.5909
112 29.2167 67.0786 63.2254
922 52.856 67.4735 62.1745
42 80.3653 70.0329 63.2824
41 78.1553 71.1756 63.0377
547 26.8951 72.7228 62.6101
470 68.5192 72.586 62.6928
40 75.9452 72.3184 62.793
1160 78.1944 73.8017 62.4034
631 49.8431 83.8952 63.1
840 2.38848 11.3495 63.4329
439 13.7062 52.4598 64.1144
440 12.8519 54.8083 64.0448
441 11.9976 57.1568 63.9752
792 31.4372 57.0588 64.0215
772 37.8975 63.1529 64.6038
446 40.9152 68.7933 64.5272
445 42.3184 70.6528 63.6198
469 68.7168 70.7477 64.3755
548 26.7113 74.7294 64.0899
1161 78.519 75.4623 64.2438
900 68.0046 77.6483 63.9842
747 31.2841 96.2012 64.1384
1084 20.6097 16.7506 64.889
1094 45.9875 30.8064 65.106
429 38.7226 38.873 65.2711
428 40.6626 40.4024 65.6549
427 42.6026 41.9318 66.0387
80 75.0324 41.8308 65.8923
79 77.2832 41.6088 64.8271
981 63.2116 46.9104 65.9786
771 38.1048 49.9645 65.0973
235 3.15853 53.0795 64.9834
447 39.5121 66.9338 65.4347
549 26.5276 76.736 65.5696
1193 84.0742 76.2451 66.1579
1192 82.6058 78.2184 65.7107
899 68.8146 79.3452 65.6318
481 9.71856 80.8554 65.0482
482 10.7403 82.9741 65.895
632 50.2158 84.7743 65.4105
746 29.3066 95.5105 65.5031
1095 46.043 29.6773 67.3358
1200 75.0537 34.6947 66.342
1199 72.9062 35.963 66.5144
1198 70.7587 37.2312 66.6867
783 64.6303 40.9787 67.3867
81 72.7816 42.0527 66.9576
868 63.2729 42.8568 67.1076
770 38.7667 49.2226 67.3911
980 62.3548 48.701 67.4983
304 17.7432 50.0488 66.2109
305 19.9835 51.1323 66.4495
306 22.2238 52.2158 66.6881
666 49.747 67.888 67.5726
405 91.1511 70.4973 67.0662
1194 85.5426 74.2718 66.6051
898 69.6246 81.042 67.2794
483 11.762 85.0928 66.7419
164 34.5604 88.3208 67.4875
163 36.8381 87.7962 66.6003
745 27.3291 94.8198 66.8678
677 72.2379 15.5637 69.0073
678 72.0821 18.0014 68.475
720 4.54123 30.9724 68.8712
793 37.1484 32.0107 68.5002
781 66.3411 36.4712 68.7119
782 65.4857 38.725 68.0493
1081 79.2441 38.3997 68.9545
525 78.582 43.0179 68.4909
869 63.1803 44.8258 68.6452
19 55.8001 51.5155 68.5469
450 57.9271 65.1901 68.3777
403 90.1263 65.7288 68.167
404 90.6387 68.113 67.6166
633 50.5885 85.6533 67.721
165 32.2828 88.8454 68.3747
468 19.9717 95.7635 68.9031
467 22.3852 96.3044 68.5388
466 24.7986 96.8453 68.1746
676 72.3937 13.126 69.5395
423 44.4592 30.3133 69.8779
524 78.5578 45.3327 69.4349
870 63.0876 46.7949 70.1828
523 78.5336 47.6475 70.379
769 39.4287 48.4808 69.6848
20 57.5711 50.0848 69.5795
979 61.498 50.4916 69.018
449 59.0321 63.4223 69.7575
665 50.8945 67.6723 69.7832
85 95.0371 74.6231 69.8338
912 60.6302 76.7355 69.7134
911 61.1018 79.1709 69.4036
910 61.5734 81.6064 69.0938
1048 73.1357 82.787 69.7935
552 30.3571 88.5343 69.5983
551 28.1467 89.6931 69.7442
550 25.9363 90.852 69.8901
60 32.5174 11.6002 70.5502
59 34.7104 11.5522 71.7495
261 76.0524 16.5468 71.6219
422 45.9606 28.9246 71.3156
719 3.48082 30.6853 71.1168
794 38.3153 32.2757 70.6952
1082 79.2738 39.7102 71.0833
21 59.3422 48.6541 70.6122
448 60.1371 61.6545 71.1373
366 90.3227 71.8078 71.6837
365 88.6696 73.5823 71.0769
682 37.9603 75.4999 70.5444
364 87.0165 75.3569 70.4701
86 94.2787 76.7003 71.0001
683 37.5463 77.9099 71.0645
873 55.4556 78.5428 71.4448
684 37.1323 80.3198 71.5847
1049 73.4027 84.5623 71.5333
991 61.7836 96.7295 70.7861
992 64.278 96.6524 70.6375
993 66.7724 96.5753 70.4888
58 36.9034 11.5042 72.9488
260 78.4968 16.9818 71.9147
259 80.9412 17.4168 72.2075
499 45.8902 21.2212 73.1919
604 37.6441 26.4537 72.169
421 47.462 27.5358 72.7534
1189 34.22 29.539 73.1409
795 39.4821 32.5407 72.8903
1083 79.3034 41.0207 73.2121
174 81.1404 51.25 72.6695
613 84.8156 52.3872 72.1464
614 87.2416 52.9863 72.2188
615 89.6677 53.5854 72.2911
664 52.0419 67.4566 71.9938
87 93.5203 78.7775 72.1663
378 6.37683 87.9786 72.5187
377 5.45937 90.2976 72.3428
376 4.5419 92.6165 72.167
648 20.453 92.2319 72.2863
501 43.8676 16.7859 74.3041
500 44.8789 19.0036 73.748
9 84.6744 23.824 74.369
8 82.8435 25.5131 74.5797
1190 35.4295 27.7724 74.4316
605 37.7685 28.4441 73.6765
718 2.4204 30.3981 73.3625
173 82.019 49.5975 74.3269
931 85.26 52.7541 74.4553
932 84.3499 55.0769 74.2934
933 83.4399 57.3998 74.1315
1116 60.7982 64.2091 74.0709
375 87.3925 68.8291 73.5036
15 95.1642 76.2509 73.5672
872 54.0904 78.5748 73.539
94 34.198 79.6048 74.2761
1050 73.6698 86.3375 73.2732
647 19.1127 93.6041 73.8896
45 73.4868 99.9519 74.4058
941 53.0507 3.48393 76.0069
942 53.0699 5.93682 75.5242
1009 35.7076 7.07501 74.8203
1010 35.1542 9.50667 74.9957
1011 34.6008 11.9383 75.171
681 41.1622 19.2899 75.4279
680 39.0556 20.6232 75.2406
679 36.9491 21.9564 75.0533
18 23.9694 25.6518 75.6551
1191 36.6391 26.0057 75.7223
7 81.0125 27.2023 74.7905
606 37.893 30.4345 75.1841
612 12.3618 44.149 75.8824
286 76.3873 45.9815 75.1335
172 82.8975 47.9449 75.9844
226 67.2956 53.7632 75.9247
91 17.2985 56.2298 74.9316
92 19.7243 55.6393 74.8024
93 22.1501 55.0488 74.6732
1115 62.5432 65.8533 74.7791
1114 64.2881 67.4976 75.4873
374 87.3068 71.0402 74.6671
373 87.2211 73.2513 75.8305
14 95.573 75.014 75.701
871 52.7253 78.6067 75.6331
95 32.6202 81.38 75.0566
96 31.0423 83.1552 75.8371
646 17.7723 94.9764 75.4928
44 73.9139 97.6668 75.3255
940 53.0315 1.03105 76.4896
103 87.7812 29.5205 77.1748
611 11.729 41.8717 76.697
287 78.3145 45.8052 76.7162
228 71.5917 51.2231 76.2259
227 69.4436 52.4931 76.0753
726 33.5211 59.164 77.246
887 72.1582 67.5732 76.9962
888 74.6048 67.7252 76.5052
262 38.744 79.0272 76.7382
1176 22.5012 88.948 76.4263
43 74.3409 95.3817 76.2453
823 82.1591 96.6315 77.1096
1134 45.3053 13.4087 78.6744
892 81.0545 17.4271 77.5325
694 37.6315 19.864 77.8492
695 37.7608 22.2681 78.5227
17 24.1596 24.2478 77.7148
241 73.5913 28.3747 78.8461
104 85.9335 29.1068 78.8072
610 11.0961 39.5944 77.5116
288 80.2417 45.6289 78.2989
127 2.65679 57.9763 78.3996
128 3.8043 60.1766 78.7029
1041 75.8464 62.1698 77.5712
1040 73.9331 63.7742 77.6939
1039 72.0198 65.3787 77.8167
886 69.7116 67.4211 77.4873
1173 32.2015 68.1873 77.86
13 95.9818 73.7771 77.8347
721 22.9487 86.7645 78.758
1175 24.4125 88.8397 78.0342
124 89.1677 93.1671 77.7387
824 80.2346 95.3061 77.998
1183 24.8018 97.7682 78.3764
1133 44.0235 15.313 79.6648
893 81.2577 15.6147 79.2424
16 24.3497 22.8438 79.7746
696 37.8902 24.6722 79.1961
178 34.6745 41.7898 78.8841
63 47.3395 41.86 79.7198
179 35.4124 44.1027 79.4807
180 36.1504 46.4156 80.0773
725 33.7767 59.7225 79.6693
363 51.2348 59.2807 80.2566
129 4.95181 62.3769 79.0061
1172 30.9462 69.5638 79.5273
263 39.1514 79.5326 79.1524
1174 26.3238 88.7313 79.642
722 22.4481 89.0734 79.5755
825 78.3101 93.9806 78.8865
125 90.9163 94.3401 79.0864
1184 26.9367 97.2927 79.5872
894 81.461 13.8022 80.9523
1132 42.7417 17.2172 80.6551
733 78.9582 23.3573 81.2862
242 73.2704 26.3574 80.2875
734 77.5183 25.3953 81.4373
735 76.0783 27.4334 81.5883
105 84.0858 28.693 80.4396
62 48.9122 42.933 81.3401
166 57.8497 52.7339 80.5982
115 19.4324 53.5709 81.6492
1171 29.691 70.9402 81.1945
264 39.5588 80.038 81.5667
597 48.3132 80.6353 80.7972
596 50.1818 82.2684 81.0996
595 52.0504 83.9014 81.402
723 21.9476 91.3824 80.393
126 92.6649 95.513 80.4342
1185 29.0717 96.8172 80.7979
958 42.1012 19.8387 81.8567
930 91.6633 21.6958 81.9089
929 89.6068 22.753 82.8593
243 72.9495 24.3402 81.7289
1022 14.5547 44.4833 82.631
61 50.4849 44.0059 82.9604
1023 16.8385 45.1086 81.8288
167 55.9456 52.8412 82.2147
724 34.0323 60.2811 82.0927
362 51.2359 61.0849 81.9871
319 86.208 81.2761 82.0521
701 63.0124 84.2106 82.2698
702 65.2702 83.1459 82.4062
700 60.7545 85.2753 82.1334
1024 51.8076 89.1035 82.1278
252 54.7763 92.9429 81.9085
742 30.2395 96.222 82.6953
959 40.5086 18.6503 83.3738
928 87.5504 23.8102 83.8097
879 15.917 30.0427 83.214
1021 12.2709 43.858 83.4331
28 3.07849 51.1657 83.9132
29 5.57066 51.0991 84.0993
30 8.06283 51.0325 84.2854
168 54.0415 52.9485 83.8312
116 20.7864 54.4772 83.5453
361 51.2371 62.8892 83.7176
937 89.8178 77.4935 83.1273
938 90.5816 79.485 84.4313
320 87.4391 81.7425 84.1774
24 43.0668 86.9269 84.1572
23 44.6042 88.894 84.0265
1025 49.755 89.0223 83.5526
22 46.1415 90.8611 83.8958
251 52.7311 92.6243 83.3106
743 31.8519 97.9676 83.4718
744 33.4644 99.7132 84.2484
1131 7.11796 12.6767 85.3402
960 38.9161 17.4619 84.8909
878 17.7216 29.1052 84.6682
645 44.547 33.7036 84.8839
444 51.4023 40.4531 84.8103
443 53.889 40.2012 84.8663
442 56.3756 39.9492 84.9223
117 22.1404 55.3836 85.4414
277 21.2793 59.2915 85.298
147 14.2201 65.04 85.8721
1138 71.4122 65.297 84.8283
939 91.3454 81.4765 85.7353
1026 47.7024 88.9411 84.9774
250 50.6859 92.3058 84.7126
877 19.5262 28.1677 86.1223
1141 54.4406 27.0337 87.001
644 46.0505 35.327 86.0476
643 47.554 36.9504 87.2113
1165 93.0871 44.3138 86.7297
1166 94.7372 46.1501 87.1235
279 17.7674 56.0476 86.7622
278 19.5234 57.6695 86.0301
145 9.82378 62.6652 86.0519
146 12.022 63.8526 85.962
249 26.0135 65.0139 86.5745
1140 66.9428 65.239 87.0692
1139 69.1775 65.268 85.9488
248 26.3108 67.4764 86.8873
247 26.6081 69.9388 87.2001
1179 50.4611 69.0238 86.6278
1178 52.9365 69.3649 86.7047
1177 55.412 69.706 86.7816
297 47.1624 73.2682 87.0665
321 88.6701 82.2089 86.3027
192 74.8078 87.86 86.4221
177 45.7276 91.7614 86.6719
176 48.1983 92.0996 86.8488
175 50.669 92.4379 87.0258
574 86.5646 93.6827 86.713
775 95.438 94.463 87.244
966 60.7581 98.6216 86.8509
1130 6.09122 11.8392 87.4602
1143 54.9813 22.2549 88.3688
1142 54.7109 24.6443 87.6849
452 75.2214 28.0065 88.5495
451 77.6387 27.5172 88.1404
1167 96.3873 47.9864 87.5172
296 45.3343 72.5444 88.6105
191 74.6503 85.7271 87.7167
575 85.4942 94.8479 88.6486
964 56.2501 96.7586 87.9496
965 58.5041 97.6901 87.4003
1129 5.06449 11.0018 89.5802
477 48.1431 13.7073 89.6523
285 76.7328 12.8395 89.0228
284 75.0204 14.5397 89.6762
599 46.6935 28.3329 90.01
453 72.8041 28.4959 88.9585
600 48.1893 30.2451 89.4134
514 72.0148 41.4839 89.2878
515 73.1571 43.6967 89.0676
516 74.2995 45.9095 88.8474
806 47.8199 75.6253 90.0383
807 49.1743 77.718 89.847
190 74.4928 83.5943 89.0114
1147 0.154694 92.2272 89.7519