ITEM: TIMESTEP
5000
ITEM: NUMBER OF ATOMS
1200
ITEM: BOX BOUNDS pp pp pp
0.0000000000000000e+00 1.0000000000000000e+02
0.0000000000000000e+00 1.0000000000000000e+02
0.0000000000000000e+00 1.0000000000000000e+02
ITEM: ATOMS id x y z
814 54.9604 12.7753 0.965673
815 53.6087 14.8456 0.595839
816 52.257 16.9159 0.226006
408 3.51646 33.7065 0.291766
407 5.67147 34.8425 0.85344
406 7.82649 35.9785 1.41511
343 18.1409 44.4133 0.472179
344 20.4639 45.192 0.969371
345 22.787 45.9706 1.46656
1044 13.6382 58.8348 0.55327
1043 16.0673 59.3883 0.760514
1042 18.4965 59.9418 0.96776
867 10.9463 72.9905 0.24936
358 7.67532 11.9771 1.76401
359 5.83323 13.46 2.57503
754 21.4063 14.1588 2.05766
755 23.6935 13.2491 2.49489
292 84.6946 31.334 2.11383
820 28.349 36.0526 2.34883
151 8.93678 49.027 2.7527
152 6.78699 50.2964 2.62169
153 4.63721 51.5657 2.49067
67 91.4012 59.1586 1.70942
866 11.753 71.6543 2.20223
487 38.5955 81.2094 2.26302
488 40.7222 82.4524 2.68944
415 14.6817 96.5536 1.66034
1110 18.9936 6.6179 3.60363
1109 21.4534 7.00719 3.38542
1108 23.9133 7.39649 3.16721
312 96.5718 7.68785 4.0866
546 3.27293 9.38585 3.6229
311 95.3418 9.85301 4.30829
756 25.9807 12.3394 2.93212
360 3.99113 14.9428 3.38604
293 84.2665 33.6395 2.9808
822 32.8968 34.8472 4.04121
821 30.6229 35.4499 3.19502
294 83.8384 35.9449 3.84777
619 60.6148 40.9222 3.19688
480 6.34606 44.9071 4.29328
691 48.379 55.3173 3.91491
692 50.4051 56.7503 3.61268
693 52.4312 58.1833 3.31044
68 93.448 58.696 3.06826
390 31.1126 66.6293 3.93074
187 80.9504 68.9807 3.35399
865 12.5597 70.318 4.15509
188 80.0246 71.302 3.42226
189 79.0987 73.6232 3.49052
489 42.849 83.6955 3.11587
416 14.732 95.2544 3.79567
1077 90.6202 97.9228 3.04461
1075 85.9911 99.772 3.43345
1076 88.3057 98.8474 3.23903
545 2.62975 10.7882 5.59005
310 94.1118 12.0182 4.52997
72 52.6861 31.8233 4.87885
620 60.1162 40.9114 5.64662
479 8.81987 44.6579 4.55437
478 11.2937 44.4086 4.81546
988 95.8351 48.0532 4.26179
989 94.9525 50.2448 5.07915
202 45.6725 57.4678 5.35201
203 47.6018 59.057 5.40104
69 95.4949 58.2334 4.42709
204 49.531 60.6462 5.45007
389 32.5239 65.3556 5.55428
622 32.1045 90.0023 4.66709
623 33.8877 91.7542 4.70213
624 35.6708 93.5061 4.73718
71 52.621 29.8036 6.3509
162 44.8016 50.0737 6.9039
990 94.0699 52.4364 5.89651
1119 39.5911 62.777 5.72036
712 17.7178 88.7927 6.21697
713 20.1181 89.4878 6.14337
714 22.5185 90.1828 6.06976
417 14.7822 93.9553 5.931
703 14.1549 10.3796 7.67651
544 1.98658 12.1906 7.55721
70 52.5558 27.784 7.82295
621 59.6176 40.9007 8.09637
161 47.282 49.9523 7.19254
160 49.7623 49.8309 7.48118
1118 37.9186 63.1033 7.54963
380 47.4893 62.6991 8.16806
388 33.9352 64.0819 7.17782
381 49.4148 64.072 7.35703
651 11.6032 71.3316 8.40999
976 40.1441 83.682 7.33323
704 13.4343 12.42 8.92864
517 52.9974 17.1874 9.08169
6 40.508 35.814 8.92908
379 45.5638 61.3263 8.97909
1117 36.2461 63.4296 9.3789
1058 89.6835 65.7303 9.71475
1057 91.2551 67.445 8.79823
977 41.7629 83.1013 9.14769
508 89.8603 84.2607 9.37978
509 88.0429 85.9769 9.42379
510 86.2256 87.6932 9.4678
1135 78.3682 3.86604 11.1107
705 12.7138 14.4603 10.1808
519 48.9606 15.2348 11.2933
518 50.979 16.2111 10.1875
5 39.3509 36.4928 11.0387
313 79.2484 57.5516 11.2509
314 81.6381 58.2212 10.9489
315 84.0278 58.8908 10.6469
1059 88.1118 64.0157 10.6313
650 13.1079 70.8789 10.3545
465 71.7863 77.7925 10.7261
978 43.3817 82.5206 10.9621
493 12.8368 90.1173 11.1471
494 11.8541 92.4128 11.0247
154 5.21459 95.0987 10.2486
495 10.8713 94.7083 10.9023
490 75.731 95.5758 10.045
1136 80.5242 2.8728 11.895
1137 82.6802 1.87955 12.6793
608 63.1905 10.783 12.4353
609 65.6375 10.5227 11.9942
811 82.7797 50.5192 12.5441
649 14.6126 70.4263 12.299
895 90.8077 77.1979 12.2825
897 85.9605 78.2834 11.7107
896 88.3841 77.7407 11.9966
464 70.301 79.0324 12.3093
156 1.01703 93.6075 12.5195
155 3.11581 94.3531 11.384
491 76.2621 94.2131 12.0726
669 62.2185 95.1349 11.7927
474 82.6086 94.7187 11.9188
607 60.7436 11.0432 12.8765
826 6.80903 17.9553 13.1157
827 7.53408 20.198 13.9492
4 38.1939 37.1716 13.1483
812 80.7312 49.206 13.1175
1106 51.4201 67.5469 13.8874
1052 78.3948 67.0631 13.6619
1051 80.7184 66.4397 12.9819
372 9.90205 68.249 13.4613
1105 51.5333 69.8545 12.9323
463 68.8157 80.2723 13.8926
1128 4.03154 85.0168 13.2754
1127 5.70406 86.7203 14.0175
492 76.7932 92.8505 14.1002
473 82.5059 92.977 13.7093
1182 72.5333 95.8555 13.5336
1181 74.1505 97.7619 13.5539
1180 75.7677 99.6683 13.5742
828 8.25913 22.4407 14.7827
122 79.617 47.2545 15.094
813 79.2254 48.4703 14.9727
123 78.7891 49.5701 15.0163
1032 32.5276 53.2696 15.3586
1031 30.8641 55.135 15.3004
1030 29.2007 57.0004 15.2422
1107 51.3068 65.2393 14.8425
385 1.60095 66.3452 15.5347
371 8.23425 66.7533 14.5709
1053 76.0712 67.6864 14.3419
1126 7.37659 88.4238 14.7597
472 82.4033 91.2353 15.4998
668 61.9499 95.7501 14.2009
566 31.359 8.37196 16.8636
567 33.1031 10.1494 16.6429
507 82.4896 14.6677 16.6583
135 64.9384 17.2368 16.9383
134 64.662 19.7214 16.9197
496 87.7509 21.2519 15.8343
133 64.3857 22.206 16.9012
497 88.4647 23.5267 16.5864
594 71.7526 44.4051 16.3514
593 72.8463 46.6007 16.8342
121 81.0424 45.6005 16.3115
382 57.7883 48.8651 16.0896
351 56.1053 53.3592 15.8168
1089 26.7632 62.9917 16.8271
370 6.56646 65.2575 15.6805
386 3.34786 67.4481 16.9425
1000 52.7134 91.7287 15.9529
139 55.7925 93.1599 16.9195
396 80.4565 93.7075 16.1021
395 82.9419 93.9329 16.2498
394 85.4273 94.1584 16.3974
667 61.6814 96.3652 16.6091
639 73.8204 1.78022 17.695
638 75.1989 3.8444 17.993
565 29.615 6.59449 17.0843
637 76.5774 5.90859 18.2911
506 81.5396 16.8035 17.5448
498 89.1785 25.8015 17.3385
222 6.00262 28.0136 17.2026
592 73.9399 48.7964 17.3169
383 57.0062 50.9981 17.133
350 57.0107 52.0611 17.7521
384 57.0152 53.1241 18.3712
387 5.09477 68.551 18.3503
1155 40.4614 71.9799 17.9247
486 56.1002 74.7105 17.6831
1001 51.4363 92.7424 17.848
456 73.9795 15.5255 19.3722
455 76.4095 16.0864 19.5466
454 78.8395 16.6473 19.7209
505 80.5896 18.9393 18.4313
221 4.13134 28.0933 18.8585
349 55.4545 50.9485 19.3615
1088 26.9623 62.7973 19.3116
53 90.6658 66.1012 19.5546
1153 41.0917 67.1416 19.017
52 90.375 68.4035 18.6247
1154 40.7765 69.5608 18.4709
909 81.3636 91.9059 18.6325
908 80.6643 94.3046 18.717
140 56.2192 94.5414 18.959
907 79.965 96.7033 18.8015
169 32.0126 98.4593 18.5221
170 34.3792 99.0987 19.0123
171 36.7458 99.7381 19.5024
232 73.1293 2.46149 21.0213
819 14.7189 20.6308 20.8712
196 47.2912 23.6089 20.9428
220 2.26005 28.173 20.5144
916 53.8163 47.4865 20.989
54 90.9567 63.7989 20.4846
485 55.3889 74.0259 19.9799
1152 30.1547 77.3141 20.9642
273 70.6075 92.9884 21.0017
1002 50.1592 93.7561 19.7432
1104 67.497 94.5199 20.8262
141 56.6459 95.9229 20.9984
233 70.9916 1.77312 22.1197
818 16.4104 19.0183 21.7592
198 42.5021 22.7683 22.1083
197 44.8966 23.1886 21.5255
918 53.8776 42.5175 21.5423
917 53.847 45.002 21.2657
1087 27.1613 62.6029 21.7961
484 54.6775 73.3413 22.2767
234 68.8539 1.08476 23.218
216 7.03205 12.3118 23.5098
856 87.2133 11.8007 23.5907
817 18.1019 17.4058 22.6472
799 53.8228 29.5352 23.5528
948 71.5129 76.8029 22.9179
1151 30.3094 77.8446 23.4023
1120 6.21446 86.1616 23.1087
1121 8.47761 87.2229 23.0649
1122 10.7408 88.2841 23.0212
272 68.9482 92.5365 22.8162
1103 67.5782 95.8255 22.9566
1090 33.7147 97.1555 23.3323
1091 36.0672 97.9313 23.6699
857 85.5629 13.5361 24.308
858 83.9125 15.2716 25.0253
801 51.7847 25.0716 24.4885
800 52.7665 27.3253 24.053
1038 73.3083 31.5627 24.6958
947 72.3661 76.9861 25.2607
66 10.8473 82.3027 25.2344
271 67.2889 92.0847 24.6308
1102 67.6593 97.1311 25.087
1092 38.4197 98.7071 24.0074
531 64.6084 3.99144 26.8336
215 6.21417 12.7577 25.8298
750 6.81027 46.399 26.5216
926 77.6327 52.04 26.7692
925 77.2922 54.2435 25.6384
883 73.2663 62.6039 26.699
1123 17.3212 76.7723 25.8422
1124 19.7 76.4788 26.5528
64 14.1128 78.6062 26.0543
1150 30.464 78.3752 25.8405
65 12.48 80.4545 25.6443
530 66.6328 4.80011 28.0575
214 5.3963 13.2036 28.1497
1037 73.8676 30.6874 26.9698
985 85.1788 30.4438 27.6823
333 11.4787 36.5415 28.0284
332 13.5807 37.7668 27.4534
331 15.6826 38.9921 26.8785
749 8.44778 47.23 28.218
927 77.9731 49.8365 27.9
961 50.5017 57.7373 26.8861
270 49.3128 65.5762 27.5226
269 47.2246 66.9318 27.2954
268 45.1363 68.2874 27.0682
1125 22.0789 76.1853 27.2635
946 73.2192 77.1692 27.6035
529 68.6572 5.60877 29.2814
901 10.4366 10.0656 28.5973
400 38.1511 25.3987 28.9666
401 36.0817 26.9448 29.2562
402 34.0644 28.3891 29.5635
987 80.6497 29.4163 29.5346
1036 74.427 29.8122 29.2438
986 82.9143 29.93 28.6085
861 21.5815 54.597 29.1377
962 49.3949 57.7699 29.1276
884 75.0011 63.2275 28.3877
762 39.7217 69.9001 28.4562
37 20.6991 89.9334 28.4318
138 92.5376 95.8235 28.8066
76 72.5295 4.90301 30.35
903 8.83123 5.80171 30.657
902 9.63392 7.93364 29.6272
1195 6.37799 16.814 30.7405
418 55.8162 32.931 30.6923
543 44.531 47.0661 31.0496
748 10.0853 48.0611 29.9144
542 43.4178 49.3021 30.9454
736 11.8949 50.6318 30.9602
541 42.3046 51.5382 30.8411
885 76.7358 63.8512 30.0764
1056 8.80812 67.6192 29.8906
880 8.24283 68.6241 29.8715
761 39.7113 67.8645 29.9074
1055 7.59342 69.7786 29.8497
881 7.02376 70.7913 29.8305
882 5.80906 72.9507 29.7895
1054 6.37435 71.9458 29.8086
27 29.8981 74.1499 29.9911
26 27.7351 75.3534 30.3416
25 25.5721 76.557 30.6921
38 18.9393 89.6286 30.1812
137 91.8766 94.6324 30.9029
1197 1.7244 15.5064 32.0189
1196 4.05119 16.1602 31.3797
419 54.6221 31.5539 32.4033
833 85.9906 35.2892 31.6784
832 88.0665 33.9155 31.9097
834 83.9147 36.6629 31.447
142 25.5434 37.4546 32.4239
143 23.5662 38.9487 32.0954
144 21.5889 40.4429 31.7668
737 10.332 52.4692 31.6169
738 8.76903 54.3066 32.2735
860 22.8859 54.592 31.2704
963 48.2881 57.8024 31.369
244 8.95994 61.3342 31.2771
397 31.221 63.4179 31.9596
760 39.7009 65.8289 31.3587
291 25.8918 68.5416 31.7109
39 17.1795 89.3237 31.9305
657 13.898 92.3508 32.3112
77 73.1878 5.97717 32.5094
859 24.1902 54.587 33.4031
245 10.0029 61.7165 33.5167
398 33.5588 63.5482 32.8358
399 35.8967 63.6786 33.712
532 15.2701 77.6869 33.6919
559 42.218 82.643 32.4786
560 44.662 82.3361 32.9061
561 47.106 82.0292 33.3336
655 8.91982 92.6725 32.6492
656 11.4089 92.5116 32.4802
136 91.2156 93.4414 32.9992
625 97.5304 4.73381 34.1345
78 73.8461 7.05133 34.6688
626 98.7147 6.93264 34.0224
627 99.899 9.13147 33.9103
303 48.9656 11.2411 35.2911
412 83.8239 12.8894 34.9089
100 85.8708 18.7786 34.8892
588 58.9611 24.6161 34.4043
587 60.5339 26.5422 34.1464
586 62.1067 28.4683 33.8885
420 53.4281 30.1767 34.1144
1111 69.2568 37.4248 34.7778
109 97.4539 38.2817 34.6664
110 98.4541 40.5577 34.9299
111 99.4543 42.8337 35.1933
290 25.7378 69.3053 34.0864
708 69.0444 76.943 34.7989
707 71.5375 77.0065 34.9739
706 74.0306 77.0701 35.149
675 2.09582 89.9831 34.4346
1078 27.0834 2.26379 36.031
1079 25.2259 3.93263 35.9092
1080 23.3685 5.60147 35.7874
302 47.2502 12.9179 35.9951
413 82.4257 14.1562 36.5491
301 45.5349 14.5948 36.6992
101 84.8909 17.3357 36.6802
855 83.1735 32.841 36.5478
955 37.1157 35.5861 36.3791
1112 68.2812 39.6027 35.5229
1113 67.3056 41.7805 36.2681
355 94.3774 41.1018 36.6308
246 11.0459 62.0988 35.7564
528 85.7095 62.5421 36.6815
616 38.0152 66.4018 35.96
289 25.5838 70.0689 36.4619
874 34.0532 72.1705 35.9598
1027 36.3373 77.2973 35.7793
533 15.8043 78.8615 35.8331
1028 34.0523 78.2907 35.9847
1029 31.7673 79.284 36.1901
433 64.4113 83.1702 36.1653
673 4.2907 85.8436 36.1801
674 3.19326 87.9133 35.3073
276 3.34038 4.92319 37.7534
854 85.559 32.8365 37.2958
853 87.9444 32.8321 38.0438
357 96.3054 36.5422 37.3332
956 36.6839 37.4256 38.0161
1098 40.9666 36.8345 37.7579
356 95.3414 38.822 36.982
787 87.479 48.6889 38.0859
526 81.9326 59.3374 37.3641
527 83.821 60.9397 37.0228
617 36.9952 68.5584 36.7075
875 33.4764 70.7641 37.9446
618 35.9753 70.715 37.4551
534 16.3386 80.0362 37.9743
330 64.8338 9.86283 38.3601
329 64.3826 12.2394 38.9911
414 81.0275 15.423 38.1893
102 83.911 15.8928 38.4712
945 81.1082 28.177 39.0078
768 13.3267 31.6019 39.453
767 12.054 33.7422 39.2313
766 10.7813 35.8826 39.0096
352 62.1556 44.2825 38.8081
353 64.3232 45.4616 39.2097
324 26.9112 48.3249 38.7263
323 24.7523 49.3902 39.4001
788 86.8542 50.9682 38.9009
1072 37.6237 64.8046 38.6378
1158 45.2803 66.7094 38.2393
1157 43.2054 67.8437 39.0506
434 62.9495 83.0337 38.1888
1035 45.9323 88.0281 39.3951
457 56.7428 95.5916 38.4128
275 2.7011 3.35238 39.5902
328 63.9315 14.616 39.6221
944 82.8275 28.5496 40.784
520 48.3427 36.7475 40.5118
3 76.4571 36.2083 39.747
1097 42.5386 37.0837 39.6858
521 46.2067 37.9582 40.0408
2 74.317 37.0006 40.7678
957 36.2522 39.2651 39.6532
522 44.0707 39.1688 39.5697
354 66.4909 46.6406 39.6114
322 22.5933 50.4556 40.0739
789 86.2294 53.2476 39.7159
846 19.034 56.6708 40.7972
1074 41.4882 62.4581 40.7731
1073 39.556 63.6314 39.7055
181 37.5164 67.595 40.8668
1156 41.1305 68.9779 39.8619
876 32.8996 69.3578 39.9294
182 36.7366 69.9099 40.3348
183 35.9568 72.2249 39.8029
435 61.4876 82.8973 40.2123
1033 48.4691 83.7243 39.6014
1034 47.2007 85.8762 39.4983
459 53.4226 92.6168 40.677
458 55.0827 94.1042 39.5449
274 2.06182 1.78157 41.427
914 30.6448 5.70361 42.0508
913 32.8327 4.49434 42.023
915 28.4569 6.91288 42.0786
849 62.7016 22.2378 40.9735
848 64.5002 23.9453 41.289
847 66.2988 25.6528 41.6044
1096 44.1106 37.333 41.6137
1 72.1768 37.793 41.7886
763 48.2815 51.3957 42.126
764 50.7361 51.8066 41.8893
765 53.1907 52.2176 41.6526
845 21.0928 56.0117 42.053
513 11.0424 74.0017 42.0019
82 61.2643 92.9975 41.0159
83 60.5003 95.278 41.698
159 36.3711 96.8033 41.4986
943 84.5469 28.9222 42.5602
628 78.7603 43.6537 43.3972
844 23.1516 55.3526 43.3089
512 8.67315 74.4683 42.649
511 6.30389 74.935 43.2962
158 37.035 94.9594 43.0507
84 59.7363 97.5586 42.38
727 3.39169 15.556 44.1568
808 1.39762 29.5465 45.0428
809 3.17614 31.3034 45.0583
810 4.95467 33.0603 45.0738
630 82.9648 41.1599 44.4472
629 80.8625 42.4068 43.9222
556 45.9124 49.5582 43.7499
568 59.2955 62.6304 44.5994
75 21.2718 69.9835 43.9236
157 37.699 93.1154 44.6027
904 97.1933 97.1306 44.4614
728 2.56715 17.1978 45.8524
663 48.5885 41.1869 46.3698
557 45.1186 47.9348 45.4775
569 57.4805 62.5299 46.3156
309 37.7864 65.4798 46.1275
74 22.3883 68.9339 45.8989
88 53.7102 75.3533 45.65
89 56.2044 75.2997 45.4881
90 58.6985 75.2461 45.3262
535 94.0656 86.7142 46.1073
536 96.4693 87.3832 45.9496
537 98.8729 88.0522 45.7919
905 95.0635 98.1818 45.2417
906 92.9336 99.233 46.0219
729 1.7426 18.8395 47.5479
558 44.3248 46.3114 47.2051
367 23.7979 47.943 47.1311
307 38.5046 60.6607 47.25
308 38.1455 63.0703 46.6887
36 15.2959 68.4462 47.7189
73 23.5049 67.8843 47.8742
717 50.197 89.0579 46.6137
949 27.3824 95.4023 47.1154
685 34.5747 5.53383 48.8974
686 37.0713 5.47428 48.7821
687 39.568 5.41473 48.6669
281 28.4339 5.73678 48.9559
280 29.2141 8.02968 48.3363
393 54.0944 17.151 48.9042
238 61.4398 23.3062 49.0463
662 47.8911 40.9093 48.7544
368 25.3708 47.0986 48.8812
1065 33.6277 60.9247 49.1308
570 55.6654 62.4293 48.0318
34 19.9677 67.5026 49.2299
35 17.6318 67.9744 48.4744
346 36.7204 68.6387 48.6255
1101 71.8425 76.1578 49.0573
1100 73.4114 78.0872 49.3141
716 50.3427 91.0062 48.1735
950 27.808 93.206 48.2312
282 27.6537 3.44389 49.5755
239 60.407 21.2871 50.0982
106 48.6216 27.0621 49.8705
975 41.4453 33.0673 49.9649
97 91.8049 33.4518 49.6616
369 26.9437 46.2542 50.6313
195 71.3537 51.802 50.5315
194 69.5879 53.5711 50.5828
193 67.8221 55.3401 50.634
1064 32.1928 62.8793 49.7394
1063 30.7578 64.8339 50.3481
48 94.4124 64.1193 50.0979
347 36.093 70.8888 49.5162
348 35.4656 73.1389 50.407
1099 74.9804 80.0166 49.5709
603 36.2485 81.7923 50.6433
951 28.2336 91.0096 49.347
715 50.4884 92.9545 49.7333
392 53.6392 17.8774 51.2526
240 59.3743 19.268 51.1501
107 47.3197 27.1711 52.002
973 45.5687 30.9378 51.8259
974 43.507 32.0026 50.8954
98 93.0214 35.0375 51.1636
661 47.1936 40.6317 51.1391
46 96.9492 60.1754 51.8328
47 95.6808 62.1474 50.9654
601 35.5645 76.874 51.2284
602 35.9065 79.3332 50.9359
751 69.0783 81.3831 51.0003
298 68.3876 4.94201 52.9157
778 88.2678 6.07962 52.5495
779 86.4757 7.81521 52.7113
780 84.6836 9.55079 52.8731
391 53.184 18.6039 53.6011
1046 67.1489 22.4592 53.3806
1047 68.4484 24.2806 52.2652
51 59.3353 29.8845 53.4217
50 59.6508 32.3612 53.2937
49 59.9662 34.8379 53.1658
99 94.2378 36.6231 52.6656
555 67.6072 45.3753 53.1581
968 93.6476 75.1314 53.0632
967 91.7058 76.472 52.2373
582 97.1812 76.491 52.2568
1146 93.9038 79.7773 53.1558
752 69.3183 81.0459 53.4658
786 75.5664 92.0801 52.2522
785 76.6964 94.2894 52.5553
784 77.8264 96.4988 52.8584
299 70.0222 4.31061 54.6987
654 31.0972 19.4004 54.9193
1045 65.8495 20.6379 54.496
342 71.4979 23.762 54.0888
1164 85.5018 24.1953 53.8927
1163 87.8812 24.868 54.2613
341 69.9514 25.725 54.1585
1162 90.2606 25.5408 54.63
108 46.0178 27.2802 54.1335
340 68.405 27.6881 54.2281
554 69.3399 46.1855 54.7678
670 28.8332 49.2244 54.6886
255 32.1756 66.6323 54.1653
254 31.0319 68.8238 54.5384
253 29.8882 71.0153 54.9115
969 95.5895 73.7909 53.889
581 96.7402 77.4654 54.5164
1069 90.973 97.807 54.5353
688 26.9108 16.1784 56.0235
33 38.0941 16.8415 55.2999
32 38.2825 19.1377 56.2704
653 29.0759 20.8648 55.0603
652 27.0546 22.3292 55.2013
1188 62.1738 27.6385 56.2455
327 65.114 40.2284 56.091
585 83.9399 41.2385 56.2368
326 66.3603 42.3948 56.0331
584 83.8095 43.7349 56.2611
325 67.6065 44.5612 55.9751
583 83.679 46.2314 56.2854
553 71.0726 46.9957 56.3776
231 76.9152 60.2552 55.8039
230 79.0181 61.4871 56.3609
634 14.1816 67.4243 55.2896
336 72.0716 73.1119 55.6143
1145 94.1212 78.241 55.1161
753 69.5582 80.7086 55.9313
843 15.5599 84.6534 56.238
256 78.8059 90.0593 55.6368
730 60.1459 92.9983 56.0323
1070 89.5152 96.827 56.3142
300 71.6569 3.6792 56.4818
689 27.2765 14.168 57.4639
31 38.4709 21.434 57.2408
863 97.6447 24.9668 57.512
862 96.2412 26.911 56.8046
1187 63.877 29.3772 56.8167
1186 65.5801 31.1158 57.3879
671 27.4157 48.4093 56.5797
267 64.7534 62.0109 57.3947
229 81.121 62.719 56.9179
635 13.9612 65.9907 57.3258
1068 25.2419 65.9963 56.5254
335 70.6982 74.5332 57.1452
1144 94.3385 76.7047 57.0763
580 96.2991 78.4397 56.7761
579 4.52819 79.1326 57.2774
997 8.34776 86.6891 56.556
842 16.991 86.6529 56.6897
841 18.4221 88.6524 57.1413
257 77.2698 91.6798 56.7613
838 0.774199 10.929 58.7941
690 27.6422 12.1576 58.9042
864 99.0482 23.0226 58.2193
971 49.3696 28.6302 59.0847
970 51.6427 29.3328 58.3168
132 12.0496 44.5373 58.7409
891 29.1527 45.0972 58.6275
131 13.57 46.5002 58.4485
672 25.9982 47.5942 58.4709
890 28.663 47.5356 58.8806
130 15.0904 48.4631 58.156
889 28.1732 49.9741 59.1337
339 9.11846 62.7527 58.7759
1066 27.0267 62.0945 59.0925
266 67.0249 62.3953 58.3654
219 71.9988 63.1245 58.7704
1067 26.1343 64.0454 57.8089
218 73.6271 65.0215 58.763
217 75.2554 66.9185 58.7556
924 55.8879 68.5147 58.2347
334 69.3248 75.9545 58.6762
578 6.22615 80.0094 58.8893
199 39.1913 80.5035 58.9303
200 41.6028 81.1584 58.8534
201 44.0143 81.8132 58.7764
998 9.44869 85.2828 58.3054
731 60.2432 93.4891 58.4818
258 75.7337 93.3002 57.8858
1071 88.0573 95.847 58.093
1086 19.2996 16.1889 60.1646
10 87.6865 26.192 60.417
972 47.0966 27.9276 59.8526
802 68.7597 51.0209 59.6046
803 69.0155 53.4646 60.0661
804 69.2714 55.9082 60.5276
774 37.8024 60.4151 60.5969
265 69.2965 62.7796 59.3361
636 13.7408 64.5571 59.362
923 54.4369 68.0389 60.2142
114 30.7222 69.6792 59.2717
1159 77.9999 72.2306 60.5822
1060 55.0306 74.9568 59.7419
1061 56.9513 76.5416 59.964
1062 58.872 78.1264 60.186
577 7.92411 80.8863 60.5011
999 10.5496 83.8766 60.0549
839 1.64637 11.184 61.1231
11 88.4586 28.5399 60.793
12 89.2306 30.8878 61.1689
237 0.332397 53.6469 61.0718
338 8.01316 61.8822 60.8425
790 29.5623 61.1331 61.7096
936 45.3985 62.1633 61.5383
113 30.0233 68.3946 61.2994
471 68.3771 74.5575 61.0941
732 60.3404 93.9798 60.9312
1085 20.0197 16.5145 62.5364
1093 46.0621 32.025 62.8954
236 1.79929 53.379 63.0784
791 30.5275 59.1625 62.9076
337 6.90787 61.0118 62.909
773 37.8777 61.8505 62.6424
935 43.5855 63.7991 62.0742
934 41.7726 65.435 62.6101
112 29.3244 67.11 63.3271
922 52.986 67.563 62.1937
42 80.473 70.0644 63.3841
41 78.2629 71.2071 63.1394
547 26.9506 72.8559 62.6941
470 68.5747 72.7191 62.7768
40 76.0529 72.3498 62.8947
1160 78.3245 73.8912 62.4226
631 49.8986 84.0284 63.1841
840 2.51854 11.4389 63.4521
439 13.7617 52.5929 64.1984
440 12.9074 54.9414 64.1288
441 12.0531 57.2899 64.0592
792 31.4927 57.1919 64.1055
772 37.953 63.286 64.6878
446 40.9707 68.9264 64.6112
445 42.3739 70.7859 63.7038
469 68.7723 70.8808 64.4595
548 26.7668 74.8625 64.1739
1161 78.6491 75.5518 64.263
900 68.1346 77.7378 64.0033
747 31.3396 96.3344 64.2224
1084 20.7398 16.8401 64.9082
1094 46.1176 30.8959 65.1252
429 38.7781 39.0061 65.3551
428 40.7181 40.5355 65.7389
427 42.6581 42.0649 66.1227
80 75.1401 41.8622 65.994
79 77.3908 41.6403 64.9287
981 63.3417 46.9998 65.9978
771 38.1603 50.0976 65.1813
235 3.26619 53.111 65.085
447 39.5676 67.0669 65.5187
549 26.5831 76.8691 65.6536
1193 84.2042 76.3346 66.1771
1192 82.7358 78.3078 65.7299
899 68.9446 79.4347 65.6509
481 9.77406 80.9885 65.1322
482 10.7958 83.1072 65.979
632 50.2713 84.9074 65.4945
746 29.3621 95.6436 65.5871
1095 46.173 29.7667 67.3549
1200 75.1838 34.7842 66.3612
1199 73.0363 36.0524 66.5336
1198 70.8888 37.3207 66.7059
783 64.3538 41.4459 67.5753
81 72.8893 42.0842 67.0593
868 63.952 42.4185 67.5261
770 38.8222 49.3558 67.475
980 62.4849 48.7905 67.5175
304 17.8508 50.0803 66.3126
305 20.0912 51.1638 66.5512
306 22.3315 52.2473 66.7898
666 49.8025 68.0211 67.6566
405 91.2066 70.6304 67.1502
1194 85.6726 74.3613 66.6243
898 69.7547 81.1315 67.2986
483 11.8175 85.2259 66.8259
163 36.5371 87.9211 66.8616
745 27.3846 94.9529 66.9518
677 72.2934 15.6968 69.0912
678 72.1376 18.1345 68.559
720 4.59673 31.1056 68.9551
793 37.2039 32.1438 68.5841
781 66.2585 36.9647 68.6907
782 65.3752 39.2141 68.0505
1081 79.3742 38.4892 68.9737
525 78.6375 43.151 68.5749
869 63.384 44.6345 68.5345
19 55.9077 51.547 68.6485
450 57.9826 65.3233 68.4617
403 90.1818 65.8619 68.251
404 90.6942 68.2462 67.7006
633 50.644 85.7864 67.805
165 31.9892 88.7126 68.7738
164 34.2602 88.3994 67.7764
468 20.0272 95.8966 68.9871
467 22.4407 96.4375 68.6228
466 24.8541 96.9785 68.2586
676 72.4492 13.2591 69.6235
423 44.5147 30.4464 69.9619
524 78.6133 45.4658 69.5189
870 63.231 46.6424 70.0159
523 78.5891 47.7806 70.4629
769 39.4842 48.6139 69.7688
20 57.6788 50.1163 69.6812
979 61.6281 50.5811 69.0372
449 59.0876 63.5555 69.8415
665 50.95 67.8054 69.8672
85 95.1447 74.6546 69.9355
912 60.7603 76.8249 69.7326
911 61.2319 79.2604 69.4228
910 61.7035 81.6959 69.113
1048 73.2657 82.8765 69.8126
551 28.5802 89.7112 69.7335
552 30.9029 88.989 69.1559
550 26.3413 90.8023 69.9507
60 32.625 11.6317 70.6519
59 34.8181 11.5837 71.8512
261 76.1601 16.5783 71.7236
422 46.0161 29.0577 71.3996
719 3.53631 30.8184 71.2008
794 38.3708 32.4088 70.7792
1082 79.4038 39.7997 71.1025
21 59.4499 48.6856 70.7138
448 60.1926 61.7877 71.2213
366 90.4304 71.8392 71.7853
365 88.7773 73.6138 71.1785
682 38.0158 75.633 70.6284
364 87.1242 75.3883 70.5718
86 94.3864 76.7318 71.1017
683 37.6018 78.043 71.1485
873 55.5856 78.6323 71.464
684 37.1878 80.453 71.6687
1049 73.5328 84.6518 71.5525
991 61.9137 96.819 70.8053
992 64.408 96.7419 70.6566
993 66.9024 96.6647 70.508
58 37.0111 11.5357 73.0504
260 78.6045 17.0133 72.0164
259 81.0488 17.4483 72.3092
499 45.9457 21.3543 73.2758
604 37.6995 26.5868 72.2529
421 47.5175 27.6689 72.8373
1189 34.35 29.6285 73.16
795 39.5376 32.6739 72.9743
1083 79.4335 41.1102 73.2313
174 81.2481 51.2815 72.7711
613 84.9408 52.6101 72.8495
614 87.325 53.1262 72.3024
615 89.751 53.7254 72.376
664 52.0974 67.5897 72.0778
87 93.628 78.809 72.2679
378 6.4845 88.0101 72.6204
377 5.56703 90.329 72.4445
376 4.64957 92.648 72.2686
648 20.5085 92.365 72.3703
501 43.9231 16.9191 74.3881
500 44.9344 19.1367 73.832
9 84.7821 23.8555 74.4706
8 82.9512 25.5446 74.6814
1190 35.5596 27.8618 74.4508
605 37.824 28.5772 73.7605
718 2.4759 30.5312 73.4465
173 82.1266 49.629 74.4286
931 85.2444 52.7967 73.8592
932 84.4892 55.1375 74.3064
933 83.5808 57.4615 74.1527
1116 60.9283 64.2986 74.0901
375 87.5001 68.8606 73.6053
15 95.2719 76.2824 73.6689
872 54.2205 78.6643 73.5581
94 34.3056 79.6363 74.3777
1050 73.7998 86.427 73.2924
647 19.1682 93.7372 73.9736
45 73.5945 99.9834 74.5074
941 53.1807 3.57341 76.0261
942 53.1999 6.02629 75.5434
1009 35.8377 7.16448 74.8395
1010 35.2842 9.59615 75.0149
1011 34.7308 12.0278 75.1902
681 41.2177 19.4231 75.5118
680 39.1111 20.7563 75.3246
679 37.0046 22.0895 75.1373
18 24.077 25.6833 75.7567
1191 36.7691 26.0952 75.7415
7 81.1202 27.2338 74.8921
606 37.9485 30.5676 75.2681
612 12.4173 44.2821 75.9664
286 76.495 46.0129 75.2351
172 83.0052 47.9764 76.086
226 67.4032 53.7946 76.0264
91 17.4061 56.2613 75.0333
92 19.832 55.6708 74.9041
93 22.2578 55.0803 74.7749
1115 62.6732 65.9428 74.7983
1114 64.4182 67.5871 75.5065
374 87.4144 71.0717 74.7687
373 87.3287 73.2828 75.9322
14 95.6806 75.0455 75.8026
871 52.8554 78.6962 75.6523
95 32.7278 81.4115 75.1583
96 31.15 83.1866 75.9388
646 17.8278 95.1095 75.5768
44 74.0215 97.6983 75.4271
940 53.1616 1.12053 76.5088
103 87.8889 29.552 77.2764
611 11.7845 42.0048 76.781
287 78.4222 45.8367 76.8178
228 71.6994 51.2546 76.3275
227 69.5513 52.5246 76.177
726 33.5766 59.2971 77.33
887 72.3348 67.0047 77.2405
888 74.6077 67.7893 76.5562
262 38.8517 79.0587 76.8398
1176 22.6313 89.0375 76.4455
43 74.4486 95.4132 76.3469
823 82.2891 96.721 77.1288
1134 45.4354 13.4982 78.6936
892 81.1846 17.5166 77.5517
694 37.687 19.9971 77.9332
695 37.8163 22.4012 78.6067
17 24.2672 24.2793 77.8165
241 73.699 28.4062 78.9477
104 86.0412 29.1382 78.9089
610 11.1516 39.7275 77.5955
288 80.3494 45.6604 78.4005
127 2.76445 58.0078 78.5013
128 3.91197 60.2081 78.8045
1041 75.8548 62.3612 77.5982
1040 73.9568 63.9845 77.7089
1039 72.4015 65.9377 77.5825
886 69.8984 67.5016 77.4996
1173 32.3316 68.2768 77.8792
13 96.0894 73.8085 77.9364
721 23.0042 86.8976 78.842
1175 24.5426 88.9292 78.0533
124 89.2753 93.1986 77.8403
824 80.3646 95.3955 78.0172
1183 25.2053 97.7965 78.5516
1133 44.1536 15.4025 79.6839
893 81.3878 15.7042 79.2616
16 24.4574 22.8753 79.8763
696 37.9456 24.8054 79.2801
178 34.7821 41.8213 78.9858
63 47.4471 41.8915 79.8215
179 35.5201 44.1342 79.5823
180 36.2581 46.4471 80.1789
725 33.8322 59.8556 79.7533
363 51.3425 59.3122 80.3582
129 5.05948 62.4084 79.1078
1172 31.0763 69.6532 79.5464
263 39.2591 79.5641 79.2541
1174 26.4539 88.8208 79.6612
722 22.5036 89.2066 79.6595
825 78.4401 94.07 78.9057
125 91.024 94.3716 79.188
1184 27.3205 97.3162 79.7946
894 81.591 13.8917 80.9715
1132 42.8717 17.3067 80.6743
733 79.0137 23.4904 81.3702
242 73.3781 26.3889 80.3891
734 77.5738 25.5284 81.5212
735 76.1338 27.5665 81.6723
105 84.1934 28.7245 80.5413
62 49.0198 42.9645 81.4418
166 57.9573 52.7654 80.6999
115 19.5401 53.6023 81.7508
1171 29.821 71.0297 81.2137
264 39.6665 80.0695 81.6683
597 48.3687 80.7685 80.8812
596 50.2373 82.4015 81.1836
595 52.106 84.0345 81.486
723 22.0031 91.5155 80.477
126 92.7726 95.5445 80.5358
1185 29.2697 96.8306 81.2828
958 42.2312 19.9281 81.8759
930 91.7933 21.7853 81.9281
929 89.7369 22.8425 82.8785
243 73.0572 24.3717 81.8305
1022 14.6847 44.5728 82.6502
61 50.5925 44.0374 83.0621
1023 16.9685 45.1981 81.848
167 56.0533 52.8727 82.3163
724 34.0878 60.4142 82.1767
362 51.3436 61.1164 82.0887
319 86.3157 81.3076 82.1537
701 63.0679 84.3437 82.3538
702 65.3257 83.279 82.4902
700 60.81 85.4084 82.2174
1024 51.9377 89.193 82.1469
252 54.7559 92.9544 82.098
742 29.9833 96.8075 82.1441
959 40.6387 18.7398 83.393
928 87.6804 23.8997 83.8289
879 16.0471 30.1322 83.2332
1021 12.401 43.9475 83.4523
28 3.18616 51.1972 84.0148
29 5.67833 51.1306 84.201
30 8.1705 51.064 84.3871
168 54.1492 52.98 83.9328
116 20.8941 54.5087 83.6469
361 51.3447 62.9207 83.8193
937 89.9478 77.583 83.1465
938 90.7116 79.5745 84.4505
320 87.5467 81.774 84.279
24 43.1745 86.9584 84.2589
23 44.7118 88.9255 84.1282
1025 49.885 89.1118 83.5717
22 46.2492 90.8926 83.9974
251 52.7213 92.6389 83.5161
743 31.757 97.9948 83.4457
744 33.3868 99.7031 84.2677
1131 7.24801 12.7662 85.3594
960 39.0461 17.5514 84.9101
878 17.8517 29.1946 84.6873
645 44.6025 33.8367 84.9679
444 51.4578 40.5863 84.8943
443 53.9445 40.3343 84.9503
442 56.4311 40.0823 85.0063
117 22.2481 55.4151 85.543
277 21.387 59.323 85.3997
147 14.3278 65.0715 85.9738
1138 71.5422 65.3865 84.8475
939 91.4755 81.566 85.7545
1026 47.8324 89.0306 84.9965
250 51.0175 92.4113 85.3314
877 19.6563 28.2571 86.1415
1141 54.5706 27.1232 87.0202
644 46.106 35.4601 86.1316
643 47.6095 37.0835 87.2953
1165 93.2171 44.4033 86.7489
1166 94.8673 46.2396 87.1427
279 17.8751 56.0791 86.8638
278 19.6311 57.701 86.1318
145 9.93145 62.6967 86.1535
146 12.1296 63.8841 86.0636
249 26.1212 65.0454 86.6761
1140 67.0729 65.3285 87.0884
1139 69.3075 65.3575 85.968
248 26.4185 67.5079 86.9889
247 26.7158 69.9703 87.3017
1179 50.5912 69.1132 86.647
1178 53.0666 69.4544 86.7239
1177 55.542 69.7955 86.8008
297 47.2224 73.2821 87.2171
321 88.7777 82.2404 86.4043
192 74.9155 87.8914 86.5237
177 45.8566 91.7958 86.775
176 48.3278 92.1337 86.9449
175 50.755 92.4268 86.4226
574 86.6201 93.8159 86.797
775 95.4935 94.5961 87.328
966 60.8881 98.7111 86.8701
1130 6.22128 11.9287 87.4794
1143 55.1113 22.3444 88.388
1142 54.841 24.7338 87.7041
452 75.2769 28.1396 88.6335
451 77.6942 27.6503 88.2244
1167 96.5174 48.0759 87.5364
191 74.758 85.7586 87.8184
575 85.5497 94.981 88.7326
964 56.3801 96.8481 87.9688
965 58.6341 97.7796 87.4194
1129 5.19454 11.0913 89.5994
477 48.1985 13.8404 89.7363
285 76.8405 12.871 89.1245
284 75.128 14.5712 89.7779
453 72.8596 28.629 89.0425
514 72.0703 41.617 89.3718
515 73.2126 43.8298 89.1516
516 74.355 46.0426 88.9314
295 43.6851 71.8814 90.2043
296 45.7531 72.8585 89.1949
805 46.4222 73.576 89.7502
806 47.8684 75.5911 90.0635
807 49.2243 77.6833 89.8789
190 74.6004 83.6257 89.113
1147 0.284737 92.3167 89.771