LAMMPS (23 Jun 2022 - Update 3)
  using 16 OpenMP thread(s) per MPI task
units lj
dimension 3
boundary p p p

atom_style full
pair_style lj/cut 2.5
bond_style harmonic
read_data spcyl.data
Reading data file ...
  orthogonal box = (0 0 0) to (100 100 100)
  1 by 1 by 1 MPI processor grid
  reading atoms ...
  1200 atoms
  reading velocities ...
  1200 velocities
  scanning bonds ...
  1 = max bonds/atom
  reading bonds ...
  800 bonds
Finding 1-2 1-3 1-4 neighbors ...
  special bond factors lj:    0        0        0       
  special bond factors coul:  0        0        0       
     2 = max # of 1-2 neighbors
     1 = max # of 1-3 neighbors
     1 = max # of 1-4 neighbors
     2 = max # of special neighbors
  special bonds CPU = 0.000 seconds
  read_data CPU = 0.009 seconds

pair_coeff 1 1 1.0 1.0 2.5
group g_spcyl type 1
1200 atoms in group g_spcyl
fix 1 g_spcyl rigid/nvt molecule temp 13.0 13.0 4.0
  3 rigid bodies with 1200 atoms
# fix 1 g_spcyl rigid/nve molecule langevin 1.0 1.0 0.1 1321432

thermo 100
thermo_style custom step temp pe press vol lx density

dump mymindump all custom 50 dump.min.lammpstrj id x y z
minimize 0 0 10000 10000
WARNING: Using 'neigh_modify every 1 delay 0 check yes' setting during minimization (src/min.cpp:187)
Generated 0 of 0 mixed pair_coeff terms from geometric mixing rule
Neighbor list info ...
  update every 1 steps, delay 0 steps, check yes
  max neighbors/atom: 2000, page size: 100000
  master list distance cutoff = 2.8
  ghost atom cutoff = 2.8
  binsize = 1.4, bins = 72 72 72
  1 neighbor lists, perpetual/occasional/extra = 1 0 0
  (1) pair lj/cut, perpetual
      attributes: half, newton on
      pair build: half/bin/newton
      stencil: half/bin/3d
      bin: standard
WARNING: Communication cutoff 2.8 is shorter than a bond length based estimate of 4.049999993954871. This may lead to errors. (src/comm.cpp:727)
Per MPI rank memory allocation (min/avg/max) = 24.84 | 24.84 | 24.84 Mbytes
   Step          Temp          PotEng         Press          Volume           Lx          Density    
         0   318.65199     -0.00029554569  0.001592555    1000000        100            0.0012       
       100   318.65199     -0.013690401    0.0015930922   1000000        100            0.0012       
       200   318.65199     -0.016218824    0.0015925789   1000000        100            0.0012       
       300   318.65199     -0.016967142    0.001593181    1000000        100            0.0012       
       400   318.65199     -0.016969471    0.001593258    1000000        100            0.0012       
       500   318.65199     -0.016969471    0.0015932599   1000000        100            0.0012       
       600   318.65199     -0.016969471    0.0015932599   1000000        100            0.0012       
       700   318.65199     -0.016969471    0.0015932599   1000000        100            0.0012       
       800   318.65199     -0.016969471    0.0015932599   1000000        100            0.0012       
       900   318.65199     -0.016969471    0.0015932599   1000000        100            0.0012       
      1000   318.65199     -0.016969471    0.0015932599   1000000        100            0.0012       
      1100   318.65199     -0.016969471    0.0015932599   1000000        100            0.0012       
      1200   318.65199     -0.016969471    0.0015932599   1000000        100            0.0012       
      1300   318.65199     -0.016969471    0.0015932599   1000000        100            0.0012       
      1400   318.65199     -0.016969471    0.0015932599   1000000        100            0.0012       
      1500   318.65199     -0.016969471    0.0015932599   1000000        100            0.0012       
      1600   318.65199     -0.016969471    0.0015932599   1000000        100            0.0012       
      1700   318.65199     -0.016969471    0.0015932599   1000000        100            0.0012       
      1800   318.65199     -0.016969471    0.0015932599   1000000        100            0.0012       
      1900   318.65199     -0.016969471    0.0015932599   1000000        100            0.0012       
      2000   318.65199     -0.016969471    0.0015932599   1000000        100            0.0012       
      2100   318.65199     -0.016969471    0.0015932599   1000000        100            0.0012       
      2200   318.65199     -0.016969471    0.0015932599   1000000        100            0.0012       
      2300   318.65199     -0.016969471    0.0015932599   1000000        100            0.0012       
      2400   318.65199     -0.016969471    0.0015932599   1000000        100            0.0012       
      2500   318.65199     -0.016969471    0.0015932599   1000000        100            0.0012       
      2600   318.65199     -0.016969471    0.0015932599   1000000        100            0.0012       
      2700   318.65199     -0.016969471    0.0015932599   1000000        100            0.0012       
      2800   318.65199     -0.016969471    0.0015932599   1000000        100            0.0012       
      2900   318.65199     -0.016969471    0.0015932599   1000000        100            0.0012       
      3000   318.65199     -0.016969471    0.0015932599   1000000        100            0.0012       
      3100   318.65199     -0.016969471    0.0015932599   1000000        100            0.0012       
      3200   318.65199     -0.016969471    0.0015932599   1000000        100            0.0012       
      3300   318.65199     -0.016969471    0.0015932599   1000000        100            0.0012       
      3400   318.65199     -0.016969471    0.0015932599   1000000        100            0.0012       
      3500   318.65199     -0.016969471    0.0015932599   1000000        100            0.0012       
      3600   318.65199     -0.016969471    0.0015932599   1000000        100            0.0012       
      3700   318.65199     -0.016969471    0.0015932599   1000000        100            0.0012       
      3800   318.65199     -0.016969471    0.0015932599   1000000        100            0.0012       
      3900   318.65199     -0.016969471    0.0015932599   1000000        100            0.0012       
      4000   318.65199     -0.016969471    0.0015932599   1000000        100            0.0012       
      4100   318.65199     -0.016969471    0.0015932599   1000000        100            0.0012       
      4200   318.65199     -0.016969471    0.0015932599   1000000        100            0.0012       
      4300   318.65199     -0.016969471    0.0015932599   1000000        100            0.0012       
      4400   318.65199     -0.016969471    0.0015932599   1000000        100            0.0012       
      4500   318.65199     -0.016969471    0.0015932599   1000000        100            0.0012       
      4600   318.65199     -0.016969471    0.0015932599   1000000        100            0.0012       
      4700   318.65199     -0.016969471    0.0015932599   1000000        100            0.0012       
      4800   318.65199     -0.016969471    0.0015932599   1000000        100            0.0012       
      4900   318.65199     -0.016969471    0.0015932599   1000000        100            0.0012       
      4984   318.65199     -0.016969471    0.0015932599   1000000        100            0.0012       
Loop time of 0.427993 on 16 procs for 4984 steps with 1200 atoms

414.2% CPU use with 1 MPI tasks x 16 OpenMP threads

Minimization stats:
  Stopping criterion = max force evaluations
  Energy initial, next-to-last, final = 
    -0.000295545685603034 -0.0169694712503957 -0.0169694712503957
  Force two-norm initial, final = 0.34386631 6.2258238e-12
  Force max component initial, final = 0.076291278 1.0094148e-12
  Final line search alpha, max atom move = 1 1.0094148e-12
  Iterations, force evaluations = 4984 10000

MPI task timing breakdown:
Section |  min time  |  avg time  |  max time  |%varavg| %total
---------------------------------------------------------------
Pair    | 0.02807    | 0.02807    | 0.02807    |   0.0 |  6.56
Bond    | 0.086819   | 0.086819   | 0.086819   |   0.0 | 20.29
Neigh   | 0.043159   | 0.043159   | 0.043159   |   0.0 | 10.08
Comm    | 0.0079637  | 0.0079637  | 0.0079637  |   0.0 |  1.86
Output  | 0.12573    | 0.12573    | 0.12573    |   0.0 | 29.38
Modify  | 0          | 0          | 0          |   0.0 |  0.00
Other   |            | 0.1362     |            |       | 31.83

Nlocal:           1200 ave        1200 max        1200 min
Histogram: 1 0 0 0 0 0 0 0 0 0
Nghost:            120 ave         120 max         120 min
Histogram: 1 0 0 0 0 0 0 0 0 0
Neighs:             53 ave          53 max          53 min
Histogram: 1 0 0 0 0 0 0 0 0 0

Total # of neighbors = 53
Ave neighs/atom = 0.044166667
Ave special neighs/atom = 2
Neighbor list builds = 82
Dangerous builds = 2
undump mymindump

dump mydmp all custom 100 dump.lammpstrj id x y z

fix 1 g_spcyl rigid/nvt molecule temp 13.0 13.0 4.0
  3 rigid bodies with 1200 atoms
neigh_modify every 1 delay 5 check yes
timestep 0.005
run 10000
Generated 0 of 0 mixed pair_coeff terms from geometric mixing rule
WARNING: Communication cutoff 2.8 is shorter than a bond length based estimate of 4.049999993954871. This may lead to errors. (src/comm.cpp:727)
Per MPI rank memory allocation (min/avg/max) = 22.43 | 22.43 | 22.43 Mbytes
   Step          Temp          PotEng         Press          Volume           Lx          Density    
      4984   318.65199     -0.016969471    0.0015932599   1000000        100            0.0012       
      5000   313.46557     -0.015970689   -0.011016533    1000000        100            0.0012       
      5100   162.48219      0.0035850747  -0.039390256    1000000        100            0.0012       
      5200   84.957151      0.013100561   -0.016884796    1000000        100            0.0012       
      5300   54.831479      0.022625874   -0.010956268    1000000        100            0.0012       
      5400   38.122791      0.032700919   -0.0080387989   1000000        100            0.0012       
      5500   33.287157      0.011353654   -0.005329402    1000000        100            0.0012       
      5600   30.303779     -0.002071252   -0.0039934785   1000000        100            0.0012       
      5700   27.994804     -0.0074638134  -0.0030357422   1000000        100            0.0012       
      5800   24.925348     -9.8718867e-05 -0.0020386029   1000000        100            0.0012       
      5900   25.048226     -0.0097478581  -0.0020877485   1000000        100            0.0012       
      6000   23.65712      -0.0069973999  -0.0017651159   1000000        100            0.0012       
      6100   23.271053     -0.0087807052  -0.0015093255   1000000        100            0.0012       
      6200   22.966232     -0.0099604743  -0.0013493362   1000000        100            0.0012       
      6300   22.211805     -0.0086935544  -0.0010761374   1000000        100            0.0012       
      6400   19.284692      0.0049262787  -0.00073640421  1000000        100            0.0012       
      6500   18.867309      0.0017306478  -0.00069682204  1000000        100            0.0012       
      6600   17.230222      0.0061483213  -0.00061299488  1000000        100            0.0012       
      6700   16.531016      0.0047714169  -0.0005445025   1000000        100            0.0012       
      6800   16.507036     -0.0010757427  -0.00051249936  1000000        100            0.0012       
      6900   15.7924       -0.0030358605  -0.0008171861   1000000        100            0.0012       
      7000   15.281548     -0.0057930113  -0.00079664372  1000000        100            0.0012       
      7100   15.531417     -0.014209735   -0.00050438442  1000000        100            0.0012       
      7200   14.356247     -0.013916328   -0.00051034656  1000000        100            0.0012       
      7300   11.749424     -0.0041410097  -0.00014518119  1000000        100            0.0012       
      7400   10.337876     -0.00072085275 -0.0007124657   1000000        100            0.0012       
      7500   9.8529631     -0.002140716   -0.00068050514  1000000        100            0.0012       
      7600   6.6308803      0.013995858   -8.8043911e-06  1000000        100            0.0012       
      7700   9.4843715     -0.0067117238  -0.00041771052  1000000        100            0.0012       
      7800   6.9901754      0.0066318952   0.00029211373  1000000        100            0.0012       
      7900   9.1992291     -0.0086704357  -9.7622247e-05  1000000        100            0.0012       
      8000   8.8661486     -0.0077281017  -9.0811766e-05  1000000        100            0.0012       
      8100   8.3427473     -0.0049847922  -0.00011982064  1000000        100            0.0012       
      8200   7.9208239     -0.0023090792  -0.00011346694  1000000        100            0.0012       
      8300   7.1659914      0.0027006702  -0.0002393996   1000000        100            0.0012       
      8400   8.538514      -0.0047737118  -4.7113726e-05  1000000        100            0.0012       
      8500   10.218614     -0.012740213    9.8881513e-05  1000000        100            0.0012       
      8600   11.018158     -0.013956739    0.00012693119  1000000        100            0.0012       
      8700   11.426216     -0.011440966    9.6807751e-05  1000000        100            0.0012       
      8800   9.9168667      0.0038981732  -0.00011926292  1000000        100            0.0012       
      8900   13.382929     -0.0083998668   0.00040594119  1000000        100            0.0012       
      9000   14.123587     -0.0028669715   0.00088217218  1000000        100            0.0012       
      9100   17.298308     -0.010972384    0.00088076554  1000000        100            0.0012       
      9200   19.334815     -0.0097619062   0.0010997785   1000000        100            0.0012       
      9300   20.879745     -0.0045634288   0.0013453943   1000000        100            0.0012       
      9400   21.90852       0.0022586661   0.0016117462   1000000        100            0.0012       
      9500   24.473551      0.0030981347   0.0015227936   1000000        100            0.0012       
      9600   23.016632      0.027395394    0.0013908038   1000000        100            0.0012       
      9700   30.331433     -0.004743547    0.00096819854  1000000        100            0.0012       
      9800   30.510134      0.0022089698   0.00039001081  1000000        100            0.0012       
      9900   28.78357       0.011552857   -0.00075060792  1000000        100            0.0012       
     10000   22.84272       0.042080137   -0.0021738508   1000000        100            0.0012       
     10100   28.569891      0.0035930738  -0.0010277009   1000000        100            0.0012       
     10200   27.535393      0.0025153352  -0.00087482705  1000000        100            0.0012       
     10300   23.877793      0.013272592   -0.00059412313  1000000        100            0.0012       
     10400   22.053961      0.0075108815  -0.001233699    1000000        100            0.0012       
     10500   18.615984      0.010598902   -0.001579165    1000000        100            0.0012       
     10600   16.757339      0.0083270133  -0.0013568878   1000000        100            0.0012       
     10700   16.503763     -0.0030726967  -0.0010000587   1000000        100            0.0012       
     10800   15.453477     -0.0051510996  -0.00073697501  1000000        100            0.0012       
     10900   13.560843     -0.00025130742 -0.00059521428  1000000        100            0.0012       
     11000   14.14077      -0.010970757   -0.000460609    1000000        100            0.0012       
     11100   12.666018     -0.0074620987  -0.00039896136  1000000        100            0.0012       
     11200   10.863381     -0.0001860046  -0.00033634722  1000000        100            0.0012       
     11300   9.3894032      0.0067890551  -0.00027109502  1000000        100            0.0012       
     11400   7.2180234      0.019917281   -0.00073793091  1000000        100            0.0012       
     11500   9.288858       0.0085459472  -8.2422108e-05  1000000        100            0.0012       
     11600   10.8754        0.0023709956   2.1471638e-05  1000000        100            0.0012       
     11700   13.114533     -0.0053547126   0.00012880199  1000000        100            0.0012       
     11800   15.362042     -0.010364196    0.00024174163  1000000        100            0.0012       
     11900   17.073481     -0.0097086161   0.000344192    1000000        100            0.0012       
     12000   17.956009     -0.0025553092   0.00045036898  1000000        100            0.0012       
     12100   18.417013      0.0075329437   0.00056529207  1000000        100            0.0012       
     12200   19.41219       0.014409729    0.00066979277  1000000        100            0.0012       
     12300   16.780191      0.043936723    0.0007366505   1000000        100            0.0012       
     12400   19.999022      0.035671013    0.00069204671  1000000        100            0.0012       
     12500   18.48656       0.056683286    0.00061766121  1000000        100            0.0012       
     12600   21.623117      0.048455351    0.00087249152  1000000        100            0.0012       
     12700   27.518376      0.023887445    0.0008083161   1000000        100            0.0012       
     12800   32.813502      0.0014691327   0.00060127011  1000000        100            0.0012       
     12900   29.490135      0.027233404   -0.0011755228   1000000        100            0.0012       
     13000   33.619287      0.0011098994  -1.5995853e-05  1000000        100            0.0012       
     13100   28.899429      0.023339849   -0.0011343446   1000000        100            0.0012       
     13200   31.472415     -0.0065202373  -0.00052535217  1000000        100            0.0012       
     13300   28.940925     -0.011086328   -0.00082554747  1000000        100            0.0012       
     13400   23.349291      0.0011866248  -0.00060457979  1000000        100            0.0012       
     13500   19.575741      0.0023573045  -0.0008018136   1000000        100            0.0012       
     13600   13.611799      0.020395222    3.9388886e-05  1000000        100            0.0012       
     13700   12.856607      0.010291974   -0.00038523843  1000000        100            0.0012       
     13800   12.158714      0.0026577035  -0.00031354132  1000000        100            0.0012       
     13900   12.136015     -0.0065727652  -0.00018528112  1000000        100            0.0012       
     14000   10.037933      0.00030600841 -5.1901631e-05  1000000        100            0.0012       
     14100   9.1675765      0.002820961    0.00027698564  1000000        100            0.0012       
     14200   9.5102437     -0.001111593    1.3063647e-05  1000000        100            0.0012       
     14300   7.4904376      0.010542318   -0.00026531394  1000000        100            0.0012       
     14400   7.6353253      0.0095209793   0.00015207321  1000000        100            0.0012       
     14500   8.4005672      0.0053735259   0.00012978884  1000000        100            0.0012       
     14600   9.2088732      0.0014049727   0.00013403     1000000        100            0.0012       
     14700   10.176717     -0.0032026042   0.00015024007  1000000        100            0.0012       
     14800   10.873274     -0.0061308128   0.00015159595  1000000        100            0.0012       
     14900   10.497214     -0.0024836446  -7.771046e-05   1000000        100            0.0012       
     14984   10.504355     -0.00073351018 -0.00015279854  1000000        100            0.0012       
Loop time of 1.14186 on 16 procs for 10000 steps with 1200 atoms

Performance: 3783315.240 tau/day, 8757.674 timesteps/s
1573.4% CPU use with 1 MPI tasks x 16 OpenMP threads

MPI task timing breakdown:
Section |  min time  |  avg time  |  max time  |%varavg| %total
---------------------------------------------------------------
Pair    | 0.047417   | 0.047417   | 0.047417   |   0.0 |  4.15
Bond    | 0.12714    | 0.12714    | 0.12714    |   0.0 | 11.13
Neigh   | 0.19887    | 0.19887    | 0.19887    |   0.0 | 17.42
Comm    | 0.036789   | 0.036789   | 0.036789   |   0.0 |  3.22
Output  | 0.17929    | 0.17929    | 0.17929    |   0.0 | 15.70
Modify  | 0.48696    | 0.48696    | 0.48696    |   0.0 | 42.65
Other   |            | 0.0654     |            |       |  5.73

Nlocal:           1200 ave        1200 max        1200 min
Histogram: 1 0 0 0 0 0 0 0 0 0
Nghost:            245 ave         245 max         245 min
Histogram: 1 0 0 0 0 0 0 0 0 0
Neighs:             64 ave          64 max          64 min
Histogram: 1 0 0 0 0 0 0 0 0 0

Total # of neighbors = 64
Ave neighs/atom = 0.053333333
Ave special neighs/atom = 2
Neighbor list builds = 333
Dangerous builds = 0
Total wall time: 0:00:01
