LAMMPS Data File for polymers

1200 atoms
800 bonds
1 atom types
1 bond types

0.0 100.0 xlo xhi
0.0 100.0 ylo yhi
0.0 100.0 zlo zhi

Masses

1 1

Bond Coeffs

1 30 2.499999995969914

Atoms

1 1 1 0 72.069148 37.761496 41.686921
2 1 1 0 74.2093 36.969163 40.666159
3 1 1 0 76.349452 36.176829 39.645397
4 1 1 0 38.086227 37.140095 13.046665
5 1 1 0 39.243277 36.461315 10.937046
6 1 1 0 40.400326 35.782535 8.827427
7 1 1 0 81.012548 27.202294 74.790461
8 1 1 0 82.843487 25.513139 74.579712
9 1 1 0 84.674427 23.823984 74.368962
10 1 1 0 87.578873 26.160509 60.315377
11 1 1 0 88.3509 28.508411 60.691316
12 1 1 0 89.122927 30.856313 61.067254
13 1 1 0 95.981755 73.777053 77.834745
14 1 1 0 95.57297 75.013979 75.70099
15 1 1 0 95.164185 76.250904 73.567235
16 1 1 0 24.349729 22.843771 79.774592
17 1 1 0 24.159551 24.247773 77.714831
18 1 1 0 23.969373 25.651774 75.655071
19 1 1 0 55.800073 51.51554 68.546899
20 1 1 0 57.571138 50.084815 69.579542
21 1 1 0 59.342204 48.65409 70.612186
22 1 1 0 46.141516 90.861084 83.895796
23 1 1 0 44.604151 88.894 84.02652
24 1 1 0 43.066786 86.926916 84.157244
25 1 1 0 25.464459 76.525516 30.590475
26 1 1 0 27.627473 75.321968 30.239983
27 1 1 0 29.790487 74.118421 29.889492
28 1 1 0 3.078488 51.165725 83.913178
29 1 1 0 5.57066 51.099125 84.099295
30 1 1 0 8.062833 51.032525 84.285413
31 1 1 0 38.363274 21.402483 57.139148
32 1 1 0 38.174834 19.106247 56.16869
33 1 1 0 37.986393 16.810011 55.198231
34 1 1 0 19.860074 67.47114 49.128234
35 1 1 0 17.524131 67.942913 48.372719
36 1 1 0 15.188189 68.414687 47.617205
37 1 1 0 20.591416 89.901903 28.330143
38 1 1 0 18.831647 89.597083 30.079514
39 1 1 0 17.071879 89.292263 31.828885
40 1 1 0 75.945214 72.318366 62.793037
41 1 1 0 78.155261 71.175641 63.037729
42 1 1 0 80.365308 70.032917 63.28242
43 1 1 0 74.340906 95.381679 76.245288
44 1 1 0 73.913851 97.666775 75.325527
45 1 1 0 73.486796 99.951871 74.405766
46 1 1 0 96.841517 60.143893 51.731177
47 1 1 0 95.573144 62.115884 50.863719
48 1 1 0 94.304772 64.087875 49.996262
49 1 1 0 59.858567 34.80645 53.064137
50 1 1 0 59.543124 32.329732 53.192071
51 1 1 0 59.22768 29.853015 53.320004
52 1 1 0 90.26732 68.372014 18.523067
53 1 1 0 90.558178 66.069707 19.453006
54 1 1 0 90.849036 63.767401 20.382945
55 1 1 0 41.395494 69.511567 93.135187
56 1 1 0 39.294006 69.769239 94.464606
57 1 1 0 37.192519 70.026911 95.794025
58 1 1 0 36.903442 11.504234 72.948779
59 1 1 0 34.710412 11.552213 71.74948
60 1 1 0 32.517382 11.600193 70.550181
61 1 1 0 50.484857 44.005893 82.960438
62 1 1 0 48.912157 42.932963 81.340118
63 1 1 0 47.339458 41.860032 79.719798
64 1 1 0 14.005157 78.574772 25.952637
65 1 1 0 12.372386 80.423017 25.542701
66 1 1 0 10.739615 82.271263 25.132765
67 1 1 0 91.293526 59.127147 1.607787
68 1 1 0 93.340371 58.664554 2.966623
69 1 1 0 95.387215 58.201961 4.325459
70 1 1 0 52.44818 27.752581 7.721295
71 1 1 0 52.513333 29.772191 6.249246
72 1 1 0 52.578486 31.791801 4.777196
73 1 1 0 23.397194 67.852778 47.772519
74 1 1 0 22.280667 68.902396 45.797254
75 1 1 0 21.164141 69.952014 43.821989
76 1 1 0 72.421881 4.87155 30.248381
77 1 1 0 73.080149 5.945706 32.40775
78 1 1 0 73.738417 7.019862 34.567118
79 1 1 0 77.283154 41.608779 64.82706
80 1 1 0 75.032401 41.83076 65.892347
81 1 1 0 72.781649 42.052741 66.957635
82 1 1 0 61.156638 92.965987 40.914255
83 1 1 0 60.392627 95.246572 41.596326
84 1 1 0 59.628617 97.527157 42.278397
85 1 1 0 95.037067 74.62307 69.833848
86 1 1 0 94.278707 76.700276 71.000084
87 1 1 0 93.520348 78.777482 72.166321
88 1 1 0 53.602535 75.321836 45.548402
89 1 1 0 56.09671 75.268249 45.386485
90 1 1 0 58.590886 75.214662 45.224568
91 1 1 0 17.298478 56.229796 74.931604
92 1 1 0 19.724305 55.639309 74.802426
93 1 1 0 22.150133 55.048822 74.673248
94 1 1 0 34.197967 79.60478 74.276108
95 1 1 0 32.620156 81.37997 75.056628
96 1 1 0 31.042344 83.15516 75.837148
97 1 1 0 91.697275 33.420329 49.559953
98 1 1 0 92.91369 35.005991 51.061956
99 1 1 0 94.130105 36.591652 52.563959
100 1 1 0 85.763151 18.747154 34.78753
101 1 1 0 84.78324 17.30424 36.578556
102 1 1 0 83.803328 15.861326 38.369582
103 1 1 0 87.781187 29.520508 77.174788
104 1 1 0 85.933485 29.106756 78.807211
105 1 1 0 84.085782 28.693005 80.439634
106 1 1 0 48.513915 27.03058 49.768889
107 1 1 0 47.212021 27.139631 51.900363
108 1 1 0 45.910127 27.248682 54.031836
109 1 1 0 97.346207 38.250223 34.564801
110 1 1 0 98.34641 40.526228 34.828229
111 1 1 0 99.346612 42.802234 35.091656
112 1 1 0 29.216741 67.078557 63.225411
113 1 1 0 29.915636 68.36312 61.197741
114 1 1 0 30.61453 69.647684 59.170072
115 1 1 0 19.43243 53.570856 81.649171
116 1 1 0 20.786422 54.477224 83.545272
117 1 1 0 22.140414 55.383593 85.441374
118 1 1 0 44.80707 28.625889 91.391027
119 1 1 0 45.338904 31.047004 91.066443
120 1 1 0 45.870739 33.468119 90.74186
121 1 1 0 80.994538 45.461626 16.244247
122 1 1 0 79.932875 47.674263 15.767687
123 1 1 0 78.871213 49.886901 15.291127
124 1 1 0 89.167671 93.167101 77.738679
125 1 1 0 90.91631 94.340066 79.086422
126 1 1 0 92.664949 95.513032 80.434166
127 1 1 0 2.656786 57.976332 78.399631
128 1 1 0 3.804299 60.176618 78.70287
129 1 1 0 4.951813 62.376904 79.00611
130 1 1 0 14.982718 48.431617 58.054347
131 1 1 0 13.462349 46.468725 58.346802
132 1 1 0 11.941979 44.505832 58.639257
133 1 1 0 64.278007 22.174571 16.799571
134 1 1 0 64.554389 19.689964 16.818086
135 1 1 0 64.83077 17.205358 16.836601
136 1 1 0 91.1079 93.409949 32.897536
137 1 1 0 91.768942 94.600977 30.801235
138 1 1 0 92.429983 95.792004 28.704934
139 1 1 0 55.684884 93.128397 16.817879
140 1 1 0 56.11154 94.509926 18.857325
141 1 1 0 56.538196 95.891456 20.896771
142 1 1 0 25.435787 37.423115 32.322266
143 1 1 0 23.45853 38.917275 31.993721
144 1 1 0 21.481273 40.411435 31.665175
145 1 1 0 9.823779 62.665193 86.051867
146 1 1 0 12.021964 63.852589 85.961991
147 1 1 0 14.220148 65.039984 85.872114
148 1 1 0 35.249674 55.77746 97.690987
149 1 1 0 36.704444 53.970515 96.759002
150 1 1 0 38.159214 52.163571 95.827017
151 1 1 0 8.829127 48.995564 2.651043
152 1 1 0 6.679342 50.264918 2.520027
153 1 1 0 4.529557 51.534272 2.389012
154 1 1 0 5.106936 95.067226 10.146927
155 1 1 0 3.008155 94.321657 11.282376
156 1 1 0 0.909373 93.576088 12.417824
157 1 1 0 37.591319 93.083889 44.50108
158 1 1 0 36.927375 94.92788 42.949025
159 1 1 0 36.263431 96.771872 41.396971
160 1 1 0 49.654613 49.799453 7.379528
161 1 1 0 47.1743 49.920839 7.090886
162 1 1 0 44.693987 50.042226 6.802245
163 1 1 0 36.838075 87.796204 66.600274
164 1 1 0 34.560437 88.320823 67.487482
165 1 1 0 32.282799 88.845442 68.374691
166 1 1 0 57.84966 52.733892 80.598221
167 1 1 0 55.945594 52.841214 82.214703
168 1 1 0 54.041528 52.948535 83.831185
169 1 1 0 31.904914 98.427874 18.420505
170 1 1 0 34.271553 99.067244 18.910632
171 1 1 0 36.638193 99.706615 19.40076
172 1 1 0 82.897523 47.944899 75.98439
173 1 1 0 82.018964 49.597469 74.326939
174 1 1 0 81.140406 51.25004 72.669487
175 1 1 0 50.668993 92.437878 87.025769
176 1 1 0 48.198308 92.09963 86.848838
177 1 1 0 45.727623 91.761383 86.671908
178 1 1 0 34.674452 41.789828 78.884109
179 1 1 0 35.412434 44.102723 79.480682
180 1 1 0 36.150417 46.415617 80.077254
181 1 1 0 37.408788 67.563545 40.765124
182 1 1 0 36.628964 69.878476 40.233176
183 1 1 0 35.84914 72.193407 39.701229
184 1 1 0 24.085489 71.143607 94.018142
185 1 1 0 24.55188 73.349117 92.937308
186 1 1 0 25.018271 75.554628 91.856474
187 1 1 0 80.842784 68.949281 3.252358
188 1 1 0 79.916919 71.270513 3.320625
189 1 1 0 78.991055 73.591744 3.388892
190 1 1 0 74.492773 83.594255 89.011396
191 1 1 0 74.650288 85.727105 87.716737
192 1 1 0 74.807803 87.859954 86.422078
193 1 1 0 67.714471 55.308614 50.532406
194 1 1 0 69.480233 53.539587 50.481136
195 1 1 0 71.245995 51.77056 50.429866
196 1 1 0 47.183518 23.577474 20.841113
197 1 1 0 44.788995 23.15715 21.423853
198 1 1 0 42.394471 22.736825 22.006593
199 1 1 0 39.08362 80.472064 58.828686
200 1 1 0 41.49511 81.126884 58.751721
201 1 1 0 43.906601 81.781704 58.674756
202 1 1 0 45.564898 57.436297 5.250366
203 1 1 0 47.494122 59.025539 5.299395
204 1 1 0 49.423346 60.614781 5.348425
205 1 1 0 60.538038 15.481835 98.651677
206 1 1 0 62.861797 14.955827 97.894406
207 1 1 0 65.185556 14.429819 97.137135
208 1 1 0 22.70752 13.299659 96.814343
209 1 1 0 21.436759 15.158062 95.727375
210 1 1 0 20.165997 17.016466 94.640407
211 1 1 0 63.828151 68.907996 95.344631
212 1 1 0 64.84168 69.905428 93.288448
213 1 1 0 65.855209 70.90286 91.232265
214 1 1 0 5.288642 13.17214 28.048063
215 1 1 0 6.106521 12.726222 25.7281
216 1 1 0 6.9244 12.280304 23.408136
217 1 1 0 75.147735 66.887059 58.653921
218 1 1 0 73.519438 64.990063 58.661363
219 1 1 0 71.891142 63.093066 58.668805
220 1 1 0 2.152402 28.141562 20.412703
221 1 1 0 4.023687 28.06185 18.756823
222 1 1 0 5.894972 27.982138 17.100944
223 1 1 0 31.441311 29.356406 96.062076
224 1 1 0 32.450825 27.108815 96.485419
225 1 1 0 33.460339 24.861225 96.908763
226 1 1 0 67.29555 53.763151 75.924734
227 1 1 0 69.443647 52.49311 76.07531
228 1 1 0 71.591745 51.22307 76.225887
229 1 1 0 81.013373 62.687488 56.816248
230 1 1 0 78.910468 61.455594 56.25927
231 1 1 0 76.807562 60.2237 55.702293
232 1 1 0 73.021634 2.430034 20.919648
233 1 1 0 70.883937 1.741664 22.01801
234 1 1 0 68.74624 1.053295 23.116372
235 1 1 0 3.158527 53.079509 64.983355
236 1 1 0 1.69163 53.347479 62.976764
237 1 1 0 0.224733 53.615448 60.970174
238 1 1 0 61.332107 23.274764 48.94464
239 1 1 0 60.299364 21.255627 49.996556
240 1 1 0 59.266621 19.23649 51.048472
241 1 1 0 73.59133 28.374708 78.846088
242 1 1 0 73.270413 26.357438 80.287488
243 1 1 0 72.949496 24.340167 81.728888
244 1 1 0 8.852279 61.302709 31.175399
245 1 1 0 9.895248 61.685038 33.415051
246 1 1 0 10.938217 62.067366 35.654702
247 1 1 0 26.608143 69.938832 87.200098
248 1 1 0 26.310832 67.476361 86.887298
249 1 1 0 26.01352 65.013891 86.574497
250 1 1 0 50.685854 92.305767 84.712578
251 1 1 0 52.731057 92.624332 83.310558
252 1 1 0 54.776261 92.942898 81.908538
253 1 1 0 29.780544 70.983826 54.809854
254 1 1 0 30.92426 68.792317 54.436753
255 1 1 0 32.067977 66.600809 54.063653
256 1 1 0 78.698256 90.027813 55.535144
257 1 1 0 77.162164 91.648278 56.65965
258 1 1 0 75.626071 93.268742 57.784156
259 1 1 0 80.941184 17.416816 72.207496
260 1 1 0 78.496794 16.9818 71.91472
261 1 1 0 76.052403 16.546784 71.621944
262 1 1 0 38.744048 79.027206 76.738183
263 1 1 0 39.151416 79.532593 79.15244
264 1 1 0 39.558784 80.03798 81.566696
265 1 1 0 69.188844 62.748113 59.234419
266 1 1 0 66.91727 62.363774 58.263731
267 1 1 0 64.645696 61.979435 57.293044
268 1 1 0 45.028674 68.25594 26.966515
269 1 1 0 47.116922 66.900361 27.193736
270 1 1 0 49.205169 65.544782 27.420957
271 1 1 0 67.181273 92.053193 24.529155
272 1 1 0 68.840543 92.505059 22.714591
273 1 1 0 70.499812 92.956925 20.900028
274 1 1 0 1.954163 1.750096 41.3253
275 1 1 0 2.593443 3.320905 39.488487
276 1 1 0 3.232722 4.891714 37.651674
277 1 1 0 21.279341 59.291469 85.298005
278 1 1 0 19.523385 57.669539 86.030098
279 1 1 0 17.767429 56.047608 86.762191
280 1 1 0 29.10649 7.9982 48.234586
281 1 1 0 28.326265 5.705308 48.85418
282 1 1 0 27.546041 3.412416 49.473773
283 1 1 0 73.307882 16.239815 90.329659
284 1 1 0 75.020356 14.539679 89.67623
285 1 1 0 76.73283 12.839543 89.0228
286 1 1 0 76.387315 45.98146 75.1335
287 1 1 0 78.314503 45.805202 76.716182
288 1 1 0 80.24169 45.628945 78.298863
289 1 1 0 25.476154 70.037468 36.360254
290 1 1 0 25.630145 69.273791 33.984737
291 1 1 0 25.784136 68.510113 31.609219
292 1 1 0 84.586932 31.302578 2.012178
293 1 1 0 84.158834 33.608027 2.879148
294 1 1 0 83.730736 35.913476 3.746119
295 1 1 0 43.506137 71.820736 90.154619
296 1 1 0 45.334264 72.544449 88.610536
297 1 1 0 47.162391 73.268162 87.066453
298 1 1 0 68.279945 4.910532 52.81401
299 1 1 0 69.914573 4.27913 54.597076
300 1 1 0 71.549201 3.647728 56.380141
301 1 1 0 45.427195 14.563299 36.597546
302 1 1 0 47.14257 12.886469 35.893466
303 1 1 0 48.857946 11.209639 35.189387
304 1 1 0 17.743179 50.048775 66.21095
305 1 1 0 19.983507 51.132292 66.449523
306 1 1 0 22.223836 52.215809 66.688096
307 1 1 0 38.396932 60.629228 47.148307
308 1 1 0 38.037811 63.038801 46.587068
309 1 1 0 37.67869 65.448374 46.025828
310 1 1 0 94.004117 11.986729 4.428318
311 1 1 0 95.234124 9.821564 4.206631
312 1 1 0 96.46413 7.656399 3.984944
313 1 1 0 79.140797 57.520157 11.149274
314 1 1 0 81.530451 58.18974 10.847255
315 1 1 0 83.920104 58.859322 10.545236
316 1 1 0 79.225709 22.272144 94.058
317 1 1 0 78.596073 24.66832 93.723487
318 1 1 0 77.966438 27.064496 93.388973
319 1 1 0 86.208027 81.276114 82.052055
320 1 1 0 87.439051 81.742513 84.17739
321 1 1 0 88.670076 82.208912 86.302726
322 1 1 0 22.48566 50.424112 39.972235
323 1 1 0 24.644609 49.358768 39.298454
324 1 1 0 26.803558 48.293424 38.624673
325 1 1 0 67.498865 44.529764 55.873483
326 1 1 0 66.252601 42.363322 55.931424
327 1 1 0 65.006337 40.196881 55.989365
328 1 1 0 63.823855 14.584579 39.520461
329 1 1 0 64.274989 12.207969 38.889428
330 1 1 0 64.726123 9.831359 38.258394
331 1 1 0 15.574934 38.960597 26.776842
332 1 1 0 13.473008 37.735299 27.351775
333 1 1 0 11.371081 36.51 27.926709
334 1 1 0 69.217171 75.923038 58.574542
335 1 1 0 70.590567 74.501755 57.043615
336 1 1 0 71.963963 73.080473 55.512688
337 1 1 0 6.800201 60.980329 62.807394
338 1 1 0 7.905498 61.85076 60.740834
339 1 1 0 9.010795 62.72119 58.674274
340 1 1 0 68.297312 27.656623 54.126453
341 1 1 0 69.84378 25.693568 54.056818
342 1 1 0 71.390248 23.730512 53.987184
343 1 1 0 18.033223 44.381896 0.370519
344 1 1 0 20.356267 45.160528 0.867712
345 1 1 0 22.67931 45.939161 1.364905
346 1 1 0 36.612751 68.607224 48.523848
347 1 1 0 35.985355 70.857327 49.414586
348 1 1 0 35.35796 73.107429 50.305325
349 1 1 0 55.213909 50.760058 19.496622
350 1 1 0 55.579819 52.150796 17.451638
351 1 1 0 55.945729 53.541533 15.406655
352 1 1 0 62.047949 44.251058 38.706442
353 1 1 0 64.215571 45.430082 39.108086
354 1 1 0 66.383193 46.609105 39.509731
355 1 1 0 94.269734 41.070322 36.529201
356 1 1 0 95.233733 38.790547 36.88039
357 1 1 0 96.197731 36.510772 37.231579
358 1 1 0 7.567678 11.945632 1.662332
359 1 1 0 5.72558 13.428509 2.473349
360 1 1 0 3.883481 14.911386 3.284367
361 1 1 0 51.237057 62.889159 83.717609
362 1 1 0 51.23594 61.084923 81.98708
363 1 1 0 51.234823 59.280687 80.25655
364 1 1 0 87.016509 75.356861 70.470146
365 1 1 0 88.669622 73.582306 71.076921
366 1 1 0 90.322734 71.807751 71.683696
367 1 1 0 23.690196 47.911526 47.029431
368 1 1 0 25.26312 47.067146 48.779554
369 1 1 0 26.836045 46.222766 50.529677
370 1 1 0 6.458806 65.226087 15.578824
371 1 1 0 8.126601 66.721822 14.469213
372 1 1 0 9.794397 68.217556 13.359602
373 1 1 0 87.221066 73.251315 75.830542
374 1 1 0 87.306763 71.040199 74.667089
375 1 1 0 87.392461 68.829084 73.503636
376 1 1 0 4.541903 92.616462 72.166964
377 1 1 0 5.459366 90.297555 72.342847
378 1 1 0 6.376829 87.978649 72.51873
379 1 1 0 45.456141 61.294837 8.877449
380 1 1 0 47.381625 62.667693 8.066416
381 1 1 0 49.30711 64.04055 7.255383
382 1 1 0 57.700802 48.739658 15.937388
383 1 1 0 57.66492 50.904955 17.186469
384 1 1 0 57.629038 53.070251 18.43555
385 1 1 0 1.493294 66.31376 15.433037
386 1 1 0 3.240207 67.416664 16.840837
387 1 1 0 4.987119 68.519567 18.248637
388 1 1 0 33.827568 64.050492 7.076173
389 1 1 0 32.416243 65.324181 5.452633
390 1 1 0 31.004919 66.597869 3.829094
391 1 1 0 53.076366 18.572381 53.499393
392 1 1 0 53.531545 17.845944 51.150968
393 1 1 0 53.986725 17.119507 48.802543
394 1 1 0 85.319694 94.126945 16.295806
395 1 1 0 82.834262 93.901493 16.148152
396 1 1 0 80.348831 93.676042 16.000497
397 1 1 0 31.113387 63.386407 31.857996
398 1 1 0 33.451191 63.516772 32.734166
399 1 1 0 35.788996 63.647136 33.610337
400 1 1 0 38.043468 25.367254 28.864892
401 2 1 0 36.026192 26.811604 29.172219
402 2 1 0 34.008916 28.255954 29.479546
403 2 1 0 90.126332 65.728816 68.167042
404 2 1 0 90.63873 68.113034 67.616629
405 2 1 0 91.151127 70.497251 67.066217
406 2 1 0 7.770994 35.845317 1.331129
407 2 1 0 5.615979 34.709346 0.769455
408 2 1 0 3.460963 33.573375 0.207782
409 2 1 0 50.780975 25.996112 91.779198
410 2 1 0 51.325016 23.55615 91.803791
411 2 1 0 51.869056 21.116188 91.828383
412 2 1 0 83.768395 12.756284 34.824886
413 2 1 0 82.370177 14.023062 36.465087
414 2 1 0 80.971959 15.28984 38.105289
415 2 1 0 14.626161 96.420437 1.576323
416 2 1 0 14.67645 95.12127 3.711654
417 2 1 0 14.726739 93.822104 5.846985
418 2 1 0 55.760684 32.797868 30.608289
419 2 1 0 54.56665 31.420731 32.319364
420 2 1 0 53.372616 30.043595 34.030439
421 2 1 0 47.462034 27.535806 72.753354
422 2 1 0 45.960602 28.924553 71.315619
423 2 1 0 44.45917 30.313301 69.877884
424 2 1 0 93.270567 18.079164 96.680428
425 2 1 0 94.111695 20.087381 95.451782
426 2 1 0 94.952824 22.095597 94.223137
427 2 1 0 42.602615 41.931768 66.03868
428 2 1 0 40.6626 40.402369 65.654909
429 2 1 0 38.722584 38.87297 65.271138
430 2 1 0 51.321583 95.116552 96.159811
431 2 1 0 52.522777 92.946001 95.850225
432 2 1 0 53.723972 90.775451 95.54064
433 2 1 0 64.355807 83.037064 36.081338
434 2 1 0 62.893951 82.900592 38.104789
435 2 1 0 61.432096 82.76412 40.128241
436 2 1 0 44.375764 35.208849 92.118649
437 2 1 0 42.443641 33.715659 91.582659
438 2 1 0 40.511518 32.222469 91.046669
439 2 1 0 13.706231 52.459808 64.114421
440 2 1 0 12.851924 54.808279 64.044816
441 2 1 0 11.997618 57.15675 63.975212
442 2 1 0 56.375604 39.949172 84.922344
443 2 1 0 53.888966 40.201154 84.866331
444 2 1 0 51.402329 40.453136 84.810317
445 2 1 0 42.318369 70.652755 63.619774
446 2 1 0 40.915212 68.793267 64.527218
447 2 1 0 39.512056 66.933779 65.434662
448 2 1 0 60.137137 61.654537 71.137266
449 2 1 0 59.032097 63.422338 69.757495
450 2 1 0 57.927056 65.190138 68.377724
451 2 1 0 77.638691 27.517208 88.140442
452 2 1 0 75.221413 28.006538 88.549491
453 2 1 0 72.804134 28.495869 88.958541
454 2 1 0 78.784031 16.514109 19.636965
455 2 1 0 76.354013 15.953208 19.462609
456 2 1 0 73.923994 15.392307 19.288253
457 2 1 0 56.687333 95.458494 38.328739
458 2 1 0 55.027223 93.971098 39.460856
459 2 1 0 53.367113 92.483703 40.592972
460 2 1 0 37.586198 69.238862 93.026744
461 2 1 0 35.517875 69.074517 91.6321
462 2 1 0 33.449553 68.910172 90.237455
463 2 1 0 68.760245 80.13912 13.808567
464 2 1 0 70.245533 78.899245 12.225333
465 2 1 0 71.730821 77.65937 10.6421
466 2 1 0 24.798631 96.845323 68.174572
467 2 1 0 22.385185 96.304393 68.538815
468 2 1 0 19.971739 95.763464 68.903057
469 2 1 0 68.716757 70.747668 64.37546
470 2 1 0 68.519168 72.586012 62.69277
471 2 1 0 68.321578 74.424357 61.010079
472 2 1 0 82.347819 91.102111 15.41579
473 2 1 0 82.450441 92.843817 13.625279
474 2 1 0 82.553063 94.585523 11.834769
475 2 1 0 49.953527 15.3599 94.010146
476 2 1 0 49.048291 14.533581 91.831214
477 2 1 0 48.143055 13.707262 89.652281
478 2 1 0 11.238181 44.275477 4.731473
479 2 1 0 8.764373 44.524689 4.470382
480 2 1 0 6.290565 44.773901 4.209291
481 2 1 0 9.718559 80.855396 65.048156
482 2 1 0 10.740295 82.974091 65.895025
483 2 1 0 11.762031 85.092786 66.741893
484 2 1 0 54.622045 73.208134 22.192738
485 2 1 0 55.333354 73.89276 19.89593
486 2 1 0 56.044663 74.577386 17.599122
487 2 1 0 38.540008 81.076242 2.179006
488 2 1 0 40.666745 82.319283 2.605432
489 2 1 0 42.793481 83.562325 3.031858
490 2 1 0 75.675456 95.442638 9.96102
491 2 1 0 76.206557 94.079977 11.988602
492 2 1 0 76.737659 92.717317 14.016184
493 2 1 0 12.781269 89.984102 11.063067
494 2 1 0 11.798556 92.279597 10.940692
495 2 1 0 10.815842 94.575092 10.818317
496 2 1 0 87.695371 21.118716 15.750372
497 2 1 0 88.409191 23.393552 16.502425
498 2 1 0 89.123011 25.668387 17.254478
499 2 1 0 45.89024 21.221214 73.191868
500 2 1 0 44.878905 19.003577 73.748003
501 2 1 0 43.86757 16.78594 74.304139
502 2 1 0 38.509767 48.504297 95.065259
503 2 1 0 38.058817 49.862544 97.11509
504 2 1 0 37.607867 51.220792 99.164921
505 2 1 0 80.534149 18.806176 18.347374
506 2 1 0 81.484111 16.670363 17.460876
507 2 1 0 82.434072 14.534551 16.574378
508 2 1 0 89.804761 84.127574 9.295773
509 2 1 0 87.98744 85.843793 9.339779
510 2 1 0 86.170119 87.560013 9.383785
511 2 1 0 6.248391 74.801863 43.212207
512 2 1 0 8.617651 74.335188 42.565042
513 2 1 0 10.98691 73.868513 41.917876
514 2 1 0 72.014773 41.483888 89.287805
515 2 1 0 73.157116 43.696705 89.067586
516 2 1 0 74.299459 45.909521 88.847368
517 2 1 0 52.941925 17.05427 8.997716
518 2 1 0 50.92353 16.077931 10.103539
519 2 1 0 48.905136 15.101592 11.209362
520 2 1 0 48.287223 36.614353 40.427821
521 2 1 0 46.151237 37.82501 39.956784
522 2 1 0 44.015251 39.035666 39.485746
523 2 1 0 78.533583 47.647482 70.378957
524 2 1 0 78.557795 45.332698 69.434929
525 2 1 0 78.582007 43.017914 68.4909
526 2 1 0 81.877137 59.204293 37.280072
527 2 1 0 83.765547 60.806611 36.938772
528 2 1 0 85.653956 62.408929 36.597472
529 2 1 0 68.60167 5.47563 29.197466
530 2 1 0 66.577306 4.666963 27.973535
531 2 1 0 64.552942 3.858295 26.749603
532 2 1 0 15.214588 77.55373 33.607842
533 2 1 0 15.748819 78.728394 35.749048
534 2 1 0 16.283051 79.903058 37.890253
535 2 1 0 94.010085 86.581101 46.023282
536 2 1 0 96.413749 87.250071 45.865563
537 2 1 0 98.817414 87.919041 45.707843
538 2 1 0 84.249134 0.531463 98.678939
539 2 1 0 85.468854 2.708391 98.831476
540 2 1 0 86.688574 4.885319 98.984013
541 2 1 0 42.249072 51.40502 30.757142
542 2 1 0 43.362312 49.16899 30.861391
543 2 1 0 44.475551 46.93296 30.96564
544 2 1 0 1.931091 12.057412 7.473234
545 2 1 0 2.574265 10.655045 5.50608
546 2 1 0 3.217438 9.252679 3.538926
547 2 1 0 26.895067 72.722759 62.610094
548 2 1 0 26.711344 74.729388 64.089853
549 2 1 0 26.527621 76.736017 65.569612
550 2 1 0 25.936302 90.851967 69.890081
551 2 1 0 28.146684 89.693119 69.744193
552 2 1 0 30.357066 88.534271 69.598305
553 2 1 0 71.017136 46.862561 56.293601
554 2 1 0 69.284432 46.052347 54.683852
555 2 1 0 67.551728 45.242134 53.074104
556 2 1 0 45.85692 49.425059 43.665945
557 2 1 0 45.063133 47.801679 45.393527
558 2 1 0 44.269347 46.178299 47.121109
559 2 1 0 42.162511 82.509855 32.394627
560 2 1 0 44.606494 82.202932 32.822112
561 2 1 0 47.050478 81.896009 33.249596
562 2 1 0 58.141487 78.221679 91.012902
563 2 1 0 58.09107 78.430667 93.503641
564 2 1 0 58.040653 78.639655 95.99438
565 2 1 0 29.559463 6.461328 17.000311
566 2 1 0 31.303557 8.238805 16.779599
567 2 1 0 33.047651 10.016281 16.558888
568 2 1 0 59.240047 62.497256 44.515373
569 2 1 0 57.424962 62.396732 46.231578
570 2 1 0 55.609877 62.296209 47.947783
571 2 1 0 89.810035 53.625098 97.88724
572 2 1 0 92.301687 53.442846 97.979209
573 2 1 0 94.793338 53.260594 98.071179
574 2 1 0 86.564584 93.682746 86.712973
575 2 1 0 85.494207 94.847897 88.648616
576 2 1 0 84.42383 96.013049 90.584259
577 2 1 0 7.868603 80.753182 60.417101
578 2 1 0 6.170647 79.876303 58.805261
579 2 1 0 4.472691 78.999425 57.193421
580 2 1 0 96.243608 78.306602 56.692088
581 2 1 0 96.684672 77.332231 54.432428
582 2 1 0 97.125735 76.35786 52.172768
583 2 1 0 83.623515 46.098293 56.201368
584 2 1 0 83.753976 43.601818 56.177069
585 2 1 0 83.884437 41.105342 56.15277
586 2 1 0 62.051216 28.335121 33.804542
587 2 1 0 60.478412 26.409041 34.062429
588 2 1 0 58.905609 24.482961 34.320317
589 2 1 0 32.751771 94.746798 98.026814
590 2 1 0 30.761484 95.658308 96.819375
591 2 1 0 28.771198 96.569817 95.611936
592 2 1 0 73.884373 48.663257 17.232914
593 2 1 0 72.790758 46.467586 16.750172
594 2 1 0 71.697143 44.271916 16.26743
595 2 1 0 52.050445 83.901393 81.402036
596 2 1 0 50.181819 82.268367 81.099613
597 2 1 0 48.313192 80.635341 80.797189
598 2 1 0 45.197641 26.420667 90.606597
599 2 1 0 46.693483 28.332875 90.010009
600 2 1 0 48.189325 30.245083 89.413421
601 2 1 0 35.508978 76.74089 51.14444
602 2 1 0 35.851001 79.200039 50.851856
603 2 1 0 36.193024 81.659188 50.559273
604 2 1 0 37.644053 26.453654 72.168962
605 2 1 0 37.768546 28.444073 73.676521
606 2 1 0 37.89304 30.434492 75.18408
607 2 1 0 60.688076 10.910085 12.792497
608 2 1 0 63.135048 10.649825 12.35137
609 2 1 0 65.58202 10.389565 11.910244
610 2 1 0 11.096109 39.594416 77.511558
611 2 1 0 11.728956 41.871687 76.696977
612 2 1 0 12.361803 44.148957 75.882396
613 2 1 0 84.815557 52.387153 72.146363
614 2 1 0 87.241623 52.986285 72.218755
615 2 1 0 89.66769 53.585417 72.291147
616 2 1 0 37.959673 66.268698 35.875956
617 2 1 0 36.939718 68.425271 36.623541
618 2 1 0 35.919763 70.581844 37.371127
619 2 1 0 60.559313 40.788997 3.112891
620 2 1 0 60.060691 40.778246 5.562638
621 2 1 0 59.562069 40.767496 8.012386
622 2 1 0 32.049025 89.869174 4.583073
623 2 1 0 33.83217 91.621077 4.618116
624 2 1 0 35.615316 93.372981 4.65316
625 2 1 0 97.474934 4.600673 34.050528
626 2 1 0 98.659235 6.799505 33.938425
627 2 1 0 99.843536 8.998338 33.826322
628 2 1 0 78.704764 43.520578 43.313166
629 2 1 0 80.807043 42.273669 43.838181
630 2 1 0 82.909321 41.026759 44.363197
631 2 1 0 49.843131 83.895241 63.100043
632 2 1 0 50.215835 84.774282 65.410536
633 2 1 0 50.588538 85.653323 67.72103
634 2 1 0 14.126089 67.291153 55.205586
635 2 1 0 13.905691 65.857559 57.241816
636 2 1 0 13.685293 64.423964 59.278046
637 2 1 0 76.521923 5.775438 18.207118
638 2 1 0 75.143406 3.711252 17.909075
639 2 1 0 73.764889 1.647067 17.611033
640 2 1 0 61.521414 44.066201 91.731915
641 2 1 0 61.897436 46.535822 91.829792
642 2 1 0 62.273458 49.005443 91.92767
643 2 1 0 47.55396 36.950434 87.211302
644 2 1 0 46.050502 35.327031 86.047611
645 2 1 0 44.547044 33.703628 84.883919
646 2 1 0 17.772312 94.976352 75.492809
647 2 1 0 19.112652 93.604102 73.889556
648 2 1 0 20.452993 92.231853 72.286303
649 2 1 0 14.557062 70.293091 12.214993
650 2 1 0 13.052398 70.745749 10.270491
651 2 1 0 11.547735 71.198407 8.325988
652 2 1 0 26.999113 22.196036 55.117316
653 2 1 0 29.020425 20.731654 54.976307
654 2 1 0 31.041737 19.267272 54.835297
655 2 1 0 8.864311 92.539313 32.565156
656 2 1 0 11.353404 92.37849 32.396186
657 2 1 0 13.842497 92.217667 32.227217
658 2 1 0 5.997911 13.374071 96.493206
659 2 1 0 4.594007 11.785591 97.818266
660 2 1 0 3.190103 10.197111 99.143326
661 2 1 0 47.138105 40.498554 51.05509
662 2 1 0 47.83557 40.776167 48.670457
663 2 1 0 48.533035 41.05378 46.285824
664 2 1 0 52.041938 67.456622 71.993763
665 2 1 0 50.894466 67.672322 69.783156
666 2 1 0 49.746994 67.888021 67.57255
667 2 1 0 61.625905 96.232096 16.525077
668 2 1 0 61.89444 95.616907 14.116877
669 2 1 0 62.162976 95.001718 11.708676
670 2 1 0 28.777745 49.091298 54.604644
671 2 1 0 27.360236 48.276206 56.495753
672 2 1 0 25.942728 47.461115 58.386863
673 2 1 0 4.235196 85.710404 36.096118
674 2 1 0 3.137754 87.780153 35.22333
675 2 1 0 2.040312 89.849903 34.350542
676 2 1 0 72.393682 13.126 69.539535
677 2 1 0 72.237884 15.563708 69.007272
678 2 1 0 72.082087 18.001417 68.475008
679 2 1 0 36.949127 21.956407 75.053294
680 2 1 0 39.055645 20.623177 75.240584
681 2 1 0 41.162164 19.289947 75.427875
682 2 1 0 37.960319 75.499861 70.544368
683 2 1 0 37.546332 77.909851 71.064526
684 2 1 0 37.132344 80.31984 71.584683
685 2 1 0 34.519201 5.400693 48.813398
686 2 1 0 37.015833 5.341142 48.698153
687 2 1 0 39.512465 5.28159 48.582908
688 2 1 0 26.855291 16.04529 55.939562
689 2 1 0 27.220984 14.034888 57.379893
690 2 1 0 27.586676 12.024485 58.820223
691 2 1 0 48.323494 55.184186 3.830919
692 2 1 0 50.349617 56.617183 3.528683
693 2 1 0 52.375739 58.05018 3.226447
694 2 1 0 37.631536 19.864013 77.84925
695 2 1 0 37.760844 22.268126 78.522689
696 2 1 0 37.890151 24.672239 79.196128
697 2 1 0 40.378666 16.090822 98.951773
698 2 1 0 39.254147 17.869396 97.60191
699 2 1 0 38.129627 19.647971 96.252048
700 2 1 0 60.754543 85.275319 82.133413
701 2 1 0 63.01237 84.210605 82.269805
702 2 1 0 65.270197 83.145892 82.406196
703 2 1 0 14.099374 10.246445 7.592544
704 2 1 0 13.378833 12.286788 8.844672
705 2 1 0 12.658292 14.32713 10.096799
706 2 1 0 73.975052 76.936943 35.064976
707 2 1 0 71.481999 76.873391 34.889916
708 2 1 0 68.988945 76.809839 34.714857
709 2 1 0 33.739908 51.14392 94.25955
710 2 1 0 31.768931 52.036316 93.007002
711 2 1 0 29.797954 52.928711 91.754453
712 2 1 0 17.662344 88.659512 6.132955
713 2 1 0 20.062646 89.354591 6.059351
714 2 1 0 22.462948 90.049669 5.985748
715 2 1 0 50.432903 92.821363 49.649266
716 2 1 0 50.287202 90.873065 48.089489
717 2 1 0 50.141501 88.924767 46.529712
718 2 1 0 2.4204 30.398117 73.362517
719 2 1 0 3.480815 30.685274 71.11684
720 2 1 0 4.541229 30.972431 68.871164
721 2 1 0 22.948663 86.764521 78.75798
722 2 1 0 22.448139 89.07345 79.575488
723 2 1 0 21.947615 91.38238 80.392996
724 2 1 0 34.032319 60.281073 82.092696
725 2 1 0 33.776706 59.722517 79.669336
726 2 1 0 33.521093 59.163961 77.245975
727 2 1 0 3.336201 15.422886 44.072849
728 2 1 0 2.511654 17.064604 45.768397
729 2 1 0 1.687106 18.706323 47.463945
730 2 1 0 60.090432 92.865209 55.948331
731 2 1 0 60.187649 93.355931 58.397768
732 2 1 0 60.284866 93.846654 60.847205
733 2 1 0 78.958227 23.357268 81.28622
734 2 1 0 77.518272 25.395335 81.437258
735 2 1 0 76.078318 27.433402 81.588296
736 2 1 0 11.839392 50.498597 30.876231
737 2 1 0 10.276462 52.336002 31.532883
738 2 1 0 8.713531 54.173406 32.189535
739 2 1 0 3.345643 64.466477 90.63998
740 2 1 0 3.267038 62.884126 92.573885
741 2 1 0 3.188432 61.301774 94.507789
742 2 1 0 30.239488 96.222036 82.695287
743 2 1 0 31.851919 97.967619 83.471821
744 2 1 0 33.46435 99.713203 84.248354
745 2 1 0 27.329051 94.819812 66.867778
746 2 1 0 29.306553 95.510518 65.503077
747 2 1 0 31.284056 96.201224 64.138375
748 2 1 0 10.029795 47.927922 29.830455
749 2 1 0 8.392282 47.09688 28.134012
750 2 1 0 6.754769 46.265838 26.437568
751 2 1 0 69.022843 81.249965 50.91627
752 2 1 0 69.262776 80.912722 53.381771
753 2 1 0 69.502709 80.575479 55.847273
754 2 1 0 21.350853 14.025681 1.973684
755 2 1 0 23.638033 13.115938 2.410916
756 2 1 0 25.925214 12.206194 2.848148
757 2 1 0 34.405756 61.060257 97.353551
758 2 1 0 34.385434 63.34086 98.377484