ITEM: TIMESTEP
0
ITEM: NUMBER OF ATOMS
1401
ITEM: BOX BOUNDS pp pp pp
-4.0000000000000000e+01 4.0000000000000000e+01
-1.5000000000000000e+01 1.5000000000000000e+01
-1.5000000000000000e+01 1.5000000000000000e+01
ITEM: ATOMS id type xs ys zs
2029 1 0.0201921 0.245066 0.169949
1695 2 0.0454616 0.186093 0.23859
1693 1 0.0349819 0.174702 0.248949
1640 2 0.0362117 0.00621085 0.236205
1481 2 0.011887 0.082615 0.0795272
1213 1 0.0884691 0.0527676 0.081376
1215 2 0.0766099 0.0531821 0.0771634
1342 1 0.0232994 0.228532 0.000110299
1344 2 0.0326116 0.216289 0.0159694
1214 2 0.092681 0.0732745 0.0596653
1300 1 0.108395 0.228009 0.129566
1301 2 0.109572 0.232094 0.0980782
1302 2 0.106759 0.196608 0.133164
1393 1 0.127408 0.0850398 0.0802433
1394 2 0.137667 0.0912963 0.095421
1395 2 0.122638 0.113737 0.0745243
2100 2 0.263332 0.115702 0.00843554
2098 1 0.268014 0.0873033 0.0158968
175 1 0.249672 0.247328 0.169534
592 1 0.225993 0.228844 0.0715191
593 2 0.233999 0.209129 0.0583476
1452 2 0.264271 0.225015 0.0132867
1451 2 0.270768 0.178414 0.0219287
1450 1 0.264664 0.202217 0.0355843
2099 2 0.279762 0.0927681 0.0184792
128 2 0.330063 0.000413015 0.0837029
2028 2 0.348608 0.130654 0.221391
2027 2 0.363098 0.14159 0.190831
2026 1 0.359656 0.121201 0.213592
517 1 0.343836 0.144418 0.0348531
518 2 0.355646 0.14915 0.0367883
519 2 0.339041 0.169283 0.0502264
1366 1 0.298674 0.136888 0.242546
1367 2 0.310553 0.13668 0.238731
1368 2 0.295958 0.167542 0.247633
145 1 0.472815 0.206484 0.176775
146 2 0.483445 0.195529 0.167055
147 2 0.474967 0.236503 0.185939
1911 2 0.473775 0.00632555 0.120243
654 2 0.46804 0.0306678 0.0167379
1799 2 0.601526 0.0528712 0.0225177
1798 1 0.592132 0.0428933 0.00545868
1665 2 0.561357 0.167165 0.223316
1664 2 0.572276 0.138024 0.19417
1663 1 0.572112 0.153229 0.222218
865 1 0.618673 0.0984235 0.0788514
866 2 0.630539 0.0989792 0.0748095
867 2 0.615209 0.128547 0.0738252
2082 2 0.683041 0.0762258 0.182092
2081 2 0.669248 0.068054 0.215662
2080 1 0.671168 0.0731644 0.184586
496 1 0.701013 0.183065 0.142229
497 2 0.709821 0.179451 0.120937
498 2 0.701889 0.157471 0.161137
1824 2 0.652479 0.21541 0.128535
1823 2 0.669109 0.194295 0.140106
1822 1 0.657445 0.18775 0.137342
416 2 0.766673 0.00164734 0.126653
1297 1 0.802477 0.0443101 0.159357
1298 2 0.813002 0.0303301 0.153445
1299 2 0.802629 0.0708626 0.14167
77 2 0.839551 0.00784815 0.238829
78 2 0.823579 0.0231474 0.216503
1944 2 0.900237 0.144783 0.144033
373 1 0.826997 0.225451 0.0824359
374 2 0.830909 0.226466 0.112572
375 2 0.819137 0.201399 0.0820321
1611 2 0.86354 0.0522288 0.15766
1610 2 0.875422 0.026123 0.187006
1609 1 0.864245 0.0259223 0.175618
169 1 0.947315 0.245098 0.222296
1943 2 0.917919 0.152238 0.160393
1942 1 0.909304 0.130151 0.158844
1938 2 0.954486 0.0952113 0.181487
1937 2 0.970642 0.107231 0.204855
1936 1 0.966363 0.0951459 0.177619
922 1 0.940193 0.1821 0.0780484
923 2 0.942381 0.160718 0.101001
924 2 0.948244 0.205184 0.0829767
1533 2 0.945594 0.00267543 0.0994497
1482 2 0.996773 0.112957 0.0783166
1480 1 0.999925 0.0821847 0.0790003
73 1 0.0309688 0.430165 0.104416
74 2 0.0426746 0.424855 0.100487
75 2 0.0299633 0.461951 0.105117
2031 2 0.0124405 0.267711 0.161119
2030 2 0.0309581 0.258183 0.165285
470 2 0.00839529 0.434945 0.226836
1093 1 0.0376389 0.380212 0.0270333
1094 2 0.0331009 0.368742 0.0542366
1095 2 0.0342823 0.35916 0.00479161
1183 1 0.0445162 0.351027 0.171147
1184 2 0.0558043 0.360469 0.166373
1185 2 0.0391504 0.376296 0.184367
1950 2 0.136432 0.315641 0.239425
1949 2 0.134043 0.31244 0.189468
1948 1 0.127987 0.312995 0.21698
1854 2 0.131929 0.312612 0.0415173
1853 2 0.134015 0.266371 0.0609453
1852 1 0.135548 0.297269 0.0677755
1201 1 0.166053 0.429268 0.173876
1202 2 0.167917 0.398487 0.167107
1203 2 0.157865 0.438711 0.152613
2096 2 0.190756 0.312809 0.0173522
2095 1 0.197568 0.333668 0.00144804
176 2 0.2438 0.258336 0.195061
177 2 0.243587 0.258869 0.144603
594 2 0.229584 0.257999 0.062781
958 1 0.223992 0.463136 0.089282
959 2 0.235025 0.457561 0.100297
960 2 0.22007 0.487842 0.106551
1710 2 0.280961 0.369848 0.134915
1709 2 0.285799 0.330504 0.106068
1708 1 0.278306 0.339237 0.129359
940 1 0.356337 0.35144 0.113761
941 2 0.359852 0.370104 0.137882
942 2 0.349504 0.370344 0.0956316
1204 1 0.29256 0.45629 0.162558
1205 2 0.296948 0.475207 0.185434
1206 2 0.28646 0.475982 0.143437
1330 1 0.338906 0.429093 0.171174
1331 2 0.349745 0.441019 0.164823
1332 2 0.332073 0.454725 0.176567
1872 2 0.384766 0.488469 0.0727325
1871 2 0.374149 0.46664 0.0371171
1870 1 0.385515 0.47252 0.0451702
955 1 0.427317 0.443518 0.051629
956 2 0.433622 0.455798 0.0274518
957 2 0.43396 0.449418 0.0775021
1030 1 0.448912 0.496611 0.120423
1031 2 0.451938 0.466297 0.126256
790 1 0.526991 0.490984 0.101618
791 2 0.517967 0.498136 0.121311
792 2 0.536614 0.48957 0.120528
445 1 0.583452 0.414448 0.218653
446 2 0.572732 0.402046 0.211791
447 2 0.581024 0.439987 0.236651
1578 2 0.615785 0.454386 0.0593927
1577 2 0.627444 0.423797 0.084773
1576 1 0.616609 0.424859 0.0712832
1986 2 0.708971 0.414198 0.0808324
1985 2 0.698031 0.373032 0.0817013
1984 1 0.701476 0.397827 0.0995567
1655 2 0.702657 0.472767 0.148588
1654 1 0.691069 0.476919 0.141813
1073 2 0.671918 0.261246 0.230949
1171 1 0.661093 0.359336 0.0175023
1172 2 0.664487 0.389358 0.0234007
1455 2 0.642416 0.450552 0.164961
1454 2 0.656551 0.42293 0.145915
1453 1 0.644942 0.421542 0.153512
1707 2 0.784777 0.376769 0.143254
1706 2 0.776926 0.344002 0.11109
1705 1 0.78399 0.345594 0.136793
1276 1 0.742715 0.424268 0.188502
1277 2 0.754675 0.424747 0.187718
1278 2 0.739435 0.451905 0.175169
1758 2 0.834233 0.421514 0.186477
1757 2 0.825885 0.413198 0.230995
1756 1 0.823744 0.413555 0.199605
1219 1 0.872302 0.408106 0.066619
1220 2 0.870134 0.411923 0.0354736
1221 2 0.882973 0.421786 0.0712085
1476 2 0.854261 0.380532 0.193467
1475 2 0.862907 0.385259 0.238106
1474 1 0.858078 0.402331 0.214425
170 2 0.957936 0.259684 0.220534
171 2 0.939502 0.268687 0.227542
523 1 0.920929 0.289415 0.097274
524 2 0.932584 0.296346 0.0992775
525 2 0.917529 0.301386 0.0691224
1602 2 0.95231 0.358675 0.238016
1600 1 0.960095 0.335699 0.230322
376 1 0.0641377 0.681226 0.162089
377 2 0.0712161 0.657791 0.172697
378 2 0.0712889 0.699269 0.143956
629 2 0.00271565 0.588492 0.0954118
1557 2 0.00776962 0.681534 0.232993
1556 2 0.0145808 0.635715 0.243821
1555 1 0.00436302 0.652152 0.24149
1042 1 0.0677501 0.509333 0.0182657
1044 2 0.0639018 0.500387 0.0471222
1177 1 0.0186807 0.712955 0.128513
1178 2 0.0192615 0.74076 0.11294
1179 2 0.0298368 0.70148 0.127373
1491 2 0.0173916 0.654248 0.0368596
1490 2 0.015201 0.61857 0.00165244
1489 1 0.011431 0.627288 0.030652
2088 2 0.142411 0.591023 0.150148
2087 2 0.146626 0.544912 0.167292
2086 1 0.137494 0.565171 0.16348
157 1 0.149928 0.570225 0.0777894
158 2 0.15935 0.582316 0.0622758
159 2 0.142066 0.594245 0.0790116
181 1 0.128651 0.736545 0.237892
1024 1 0.106333 0.518701 0.132507
1025 2 0.117194 0.530045 0.139607
1026 2 0.0987549 0.54026 0.144544
688 1 0.225403 0.67574 0.0309315
689 2 0.236994 0.668567 0.0342902
690 2 0.220472 0.649152 0.0191741
1629 2 0.267365 0.645986 0.163033
1627 1 0.265821 0.622762 0.141545
1554 2 0.214887 0.57019 0.171783
1553 2 0.219387 0.617787 0.183488
1552 1 0.223772 0.588101 0.183435
2064 2 0.311129 0.6656 0.229999
2063 2 0.321041 0.640348 0.195211
2062 1 0.320764 0.647028 0.226402
361 1 0.297678 0.55316 0.216496
362 2 0.306621 0.56965 0.229815
363 2 0.287751 0.565992 0.228845
1628 2 0.276768 0.617458 0.129807
937 1 0.324995 0.544085 0.0493157
938 2 0.332788 0.540798 0.0253269
939 2 0.325835 0.574792 0.0576871
1947 2 0.405775 0.608604 0.149936
1946 2 0.397006 0.593487 0.10785
1945 1 0.395221 0.598254 0.139037
1916 2 0.441608 0.708495 0.00671249
1782 2 0.400776 0.675421 0.180261
1781 2 0.40833 0.717997 0.162149
1780 1 0.398909 0.698596 0.158902
874 1 0.375116 0.540943 0.232236
876 2 0.374974 0.567216 0.214137
1032 2 0.45046 0.511501 0.148339
1261 1 0.443406 0.650114 0.124592
1263 2 0.441905 0.671242 0.10102
1889 2 0.455159 0.72517 0.128732
484 1 0.543006 0.708367 0.159005
486 2 0.538676 0.734842 0.145449
1722 2 0.509045 0.678767 0.0938046
1721 2 0.52441 0.697714 0.0712502
1720 1 0.516913 0.672858 0.0705048
748 1 0.495189 0.501385 0.0862193
749 2 0.500861 0.518405 0.063868
750 2 0.484318 0.514586 0.0880733
899 2 0.504234 0.739758 0.246692
1262 2 0.454605 0.654986 0.134715
2051 2 0.626252 0.575465 0.240069
229 1 0.598693 0.577166 0.0118305
230 2 0.60942 0.590726 0.00785168
322 1 0.565447 0.558304 0.0506354
323 2 0.576383 0.548697 0.0419658
324 2 0.565238 0.589443 0.0437018
400 1 0.62665 0.67494 0.217033
401 2 0.635955 0.66399 0.233836
402 2 0.631014 0.699903 0.200926
485 2 0.551873 0.699139 0.139671
1060 1 0.57368 0.607859 0.127296
1061 2 0.566741 0.58279 0.134171
1062 2 0.580397 0.598092 0.102765
1075 1 0.587202 0.71874 0.0392851
1076 2 0.595944 0.701413 0.0260806
1077 2 0.588923 0.748235 0.0280139
1125 2 0.598131 0.63701 0.24899
1812 2 0.692379 0.72551 0.0166864
1656 2 0.689958 0.508304 0.136889
1270 1 0.678193 0.627903 0.168386
1271 2 0.673924 0.64943 0.147769
1272 2 0.671082 0.630474 0.193918
1439 2 0.717448 0.716165 0.12059
1438 1 0.720586 0.729909 0.0930384
481 1 0.736305 0.56753 0.223429
483 2 0.729693 0.550651 0.20288
811 1 0.75762 0.601422 0.203976
812 2 0.763347 0.588107 0.228622
813 2 0.765867 0.619755 0.189895
1156 1 0.79078 0.698454 0.122016
1157 2 0.801561 0.690159 0.110938
1158 2 0.789294 0.728562 0.112226
1159 1 0.808982 0.592014 0.148322
1160 2 0.81616 0.566641 0.151141
1161 2 0.816447 0.616882 0.146466
1866 2 0.845554 0.605463 0.107969
1865 2 0.862054 0.582441 0.116936
1864 1 0.85036 0.576739 0.113331
1851 2 0.860877 0.707984 0.174905
1850 2 0.877591 0.685102 0.168866
1849 1 0.866106 0.679297 0.175679
490 1 0.925989 0.743619 0.182786
492 2 0.926609 0.720761 0.204985
628 1 0.998077 0.592503 0.124548
630 2 0.986283 0.594715 0.119651
757 1 0.0626401 0.903482 0.158912
758 2 0.0563566 0.929353 0.15067
759 2 0.0610898 0.883202 0.134629
1641 2 0.03036 0.958226 0.235513
1639 1 0.0362392 0.979913 0.218137
1069 1 0.0829816 0.786285 0.200478
1070 2 0.0829479 0.754405 0.199173
1071 2 0.0848192 0.793017 0.231279
183 2 0.119995 0.755576 0.226798
1897 1 0.181537 0.948214 0.152066
1539 2 0.0975592 0.835147 0.0671684
1538 2 0.107575 0.801157 0.041133
1537 1 0.0966713 0.814113 0.0432933
313 1 0.26555 0.778129 0.24378
1899 2 0.183332 0.941767 0.121187
1898 2 0.188283 0.926907 0.16757
1428 2 0.270696 0.962959 0.157981
127 1 0.329782 0.978396 0.106784
129 2 0.330096 0.950522 0.0912808
314 2 0.277127 0.771537 0.23915
1563 2 0.303304 0.947692 0.0911859
1562 2 0.294297 0.981385 0.120071
1561 1 0.292379 0.956524 0.100737
1551 2 0.346715 0.78721 0.0306903
1550 2 0.340375 0.796286 0.0773623
1549 1 0.34994 0.785706 0.0613795
1427 2 0.283799 0.936648 0.183146
1426 1 0.277291 0.936385 0.156374
1345 1 0.299098 0.887996 0.245988
1346 2 0.302498 0.915149 0.231896
1347 2 0.293904 0.871139 0.222707
2055 2 0.389713 0.949153 0.207559
2054 2 0.400012 0.918376 0.236627
2053 1 0.400303 0.934378 0.209034
1890 2 0.452115 0.767238 0.155395
1888 1 0.451758 0.755609 0.125699
4 1 0.518187 0.820618 0.0334553
5 2 0.519488 0.789319 0.0283217
6 2 0.510397 0.830123 0.0111797
49 1 0.532318 0.898168 0.224855
50 2 0.540195 0.921773 0.229284
51 2 0.523413 0.904679 0.245148
1910 2 0.478745 0.964772 0.145623
1909 1 0.469207 0.981804 0.136625
652 1 0.469346 0.999301 0.0120456
653 2 0.481131 0.995203 0.00836537
898 1 0.496825 0.752308 0.225008
900 2 0.503628 0.772745 0.208537
1419 2 0.461683 0.817033 0.0319
1418 2 0.478377 0.819892 0.00830758
1417 1 0.469318 0.799921 0.0142732
1407 2 0.459165 0.901982 0.0850042
1406 2 0.474573 0.904552 0.114188
1405 1 0.466553 0.88397 0.102481
1275 2 0.586774 0.886434 0.242287
1755 2 0.672274 0.951719 0.243242
1754 2 0.668204 0.995037 0.219741
1753 1 0.677248 0.978851 0.232946
1725 2 0.687157 0.970337 0.0925937
1724 2 0.673106 0.936873 0.0973653
1723 1 0.679236 0.958936 0.113615
1497 2 0.656226 0.968154 0.0354812
1496 2 0.638841 0.957182 0.0521169
1495 1 0.644654 0.970964 0.0278736
415 1 0.763009 0.9818 0.103661
417 2 0.753292 0.967664 0.115774
520 1 0.738256 0.791134 0.152889
521 2 0.749877 0.787156 0.159366
522 2 0.73644 0.822524 0.155929
1150 1 0.756965 0.842818 0.102913
1151 2 0.758091 0.829927 0.073881
1152 2 0.766286 0.831407 0.119343
1440 2 0.728873 0.751423 0.101219
1390 1 0.789841 0.786766 0.185005
1391 2 0.792856 0.780285 0.154816
1392 2 0.779674 0.803422 0.182662
76 1 0.828333 0.998677 0.232582
1878 2 0.829267 0.954472 0.00653828
1877 2 0.844639 0.927899 0.019196
1876 1 0.832717 0.928069 0.021909
1311 2 0.905715 0.806999 0.0218706
424 1 0.913134 0.904286 0.154285
425 2 0.924199 0.902099 0.166228
426 2 0.910078 0.934824 0.158642
491 2 0.924057 0.770437 0.199287
1532 2 0.962042 0.977832 0.0970845
1531 1 0.952421 0.982028 0.115583
1694 2 0.0379308 0.150466 0.268153
1689 2 0.00399542 0.207005 0.491212
1688 2 0.0186047 0.17494 0.490377
1687 1 0.00688522 0.176839 0.484232
769 1 0.0770727 0.146943 0.475314
770 2 0.0846721 0.167314 0.461444
139 1 0.176626 0.0300658 0.403465
140 2 0.174658 0.0352047 0.434515
1467 2 0.107636 0.0373782 0.402829
1466 2 0.124445 0.0296823 0.424691
1465 1 0.114208 0.0149445 0.417237
1431 2 0.158839 0.212865 0.302917
1429 1 0.164408 0.240439 0.296817
141 2 0.184926 0.00709391 0.402789
1258 1 0.245489 0.0992767 0.322332
1259 2 0.25559 0.0822806 0.324199
1260 2 0.249163 0.129443 0.318861
1381 1 0.317044 0.0861596 0.32433
1382 2 0.327303 0.09385 0.338835
1383 2 0.308844 0.104932 0.338024
2013 2 0.434347 0.102148 0.341555
2012 2 0.431972 0.0637003 0.37362
2011 1 0.434583 0.0948216 0.372603
2004 2 0.438403 0.033853 0.470139
2003 2 0.421392 0.0438404 0.489865
2002 1 0.426997 0.0391281 0.462072
397 1 0.389787 0.0278809 0.34853
398 2 0.397318 0.0105698 0.330781
399 2 0.395265 0.0560363 0.351979
121 1 0.489782 0.239025 0.342716
122 2 0.49787 0.215639 0.345142
406 1 0.467976 0.143021 0.285983
407 2 0.479306 0.152033 0.281084
408 2 0.461445 0.168197 0.276987
1719 2 0.533879 0.0857348 0.340406
1718 2 0.522931 0.0785409 0.380933
1717 1 0.530938 0.0987146 0.368478
949 1 0.515533 0.0180494 0.298328
950 2 0.526316 0.00956282 0.309241
951 2 0.514292 0.0484828 0.307322
1039 1 0.486215 0.0420167 0.3941
1040 2 0.488004 0.0122876 0.383543
1041 2 0.485359 0.0596451 0.367604
1140 2 0.494648 0.161791 0.495153
53 2 0.635205 0.232371 0.331457
1956 2 0.609149 0.217309 0.347915
1955 2 0.615903 0.170386 0.352438
1954 1 0.607254 0.187307 0.338305
694 1 0.576147 0.0537479 0.326206
695 2 0.571861 0.0685032 0.300329
696 2 0.586458 0.0407726 0.316525
1057 1 0.557581 0.099085 0.412156
1058 2 0.567882 0.107046 0.426299
1059 2 0.549216 0.115061 0.428441
1324 1 0.567473 0.212449 0.373532
1325 2 0.572123 0.184224 0.381755
1326 2 0.56705 0.21171 0.341654
9 2 0.726778 0.113924 0.330518
2010 2 0.666842 0.191028 0.345872
2009 2 0.670064 0.149928 0.317881
2008 1 0.673536 0.164609 0.344654
1460 2 0.694798 0.0107141 0.415783
7 1 0.728624 0.0824532 0.328678
8 2 0.740485 0.07946 0.325759
28 1 0.790504 0.209533 0.460997
29 2 0.79637 0.1994 0.486895
30 2 0.795208 0.238203 0.454781
634 1 0.77506 0.0561877 0.277004
635 2 0.775859 0.0740394 0.250645
636 2 0.766339 0.0352867 0.270653
1737 2 0.770859 0.00378676 0.496203
1736 2 0.76484 0.0209121 0.451531
1830 2 0.843066 0.116087 0.310327
1829 2 0.847093 0.10097 0.263394
1828 1 0.841126 0.0923309 0.289666
722 2 0.908555 0.186838 0.257537
739 1 0.853873 0.0621366 0.497343
740 2 0.865823 0.0637048 0.496905
741 2 0.850317 0.0925504 0.499109
721 1 0.917294 0.208065 0.252592
723 2 0.922327 0.212034 0.281265
1847 2 0.00731634 0.386024 0.351147
469 1 0.0105643 0.430692 0.257925
471 2 0.022351 0.435294 0.260917
1692 2 0.0247695 0.299217 0.4952
1690 1 0.0132635 0.307238 0.491695
1584 2 0.0872745 0.373249 0.420911
1582 1 0.0870011 0.35522 0.394596
2046 2 0.117956 0.316945 0.35445
2045 2 0.121705 0.281151 0.320311
2044 1 0.114351 0.288203 0.344472
1583 2 0.0963911 0.365075 0.377451
1503 2 0.0978195 0.469129 0.330467
1501 1 0.0993142 0.476443 0.299667
1430 2 0.167483 0.251635 0.325546
2074 1 0.250016 0.484452 0.425644
118 1 0.230196 0.263408 0.360867
119 2 0.239888 0.267659 0.379088
120 2 0.223961 0.290442 0.364138
1983 2 0.321749 0.48965 0.300704
1982 2 0.310201 0.453799 0.318395
1981 1 0.320593 0.457987 0.303143
1048 1 0.276562 0.308382 0.294812
1049 2 0.286146 0.293432 0.282923
1050 2 0.272892 0.327493 0.271211
1473 2 0.322068 0.312431 0.292059
1472 2 0.333257 0.300739 0.331041
1471 1 0.3245 0.289011 0.312734
508 1 0.436419 0.48867 0.368357
509 2 0.447158 0.494461 0.355538
510 2 0.430426 0.473111 0.34554
1734 2 0.407023 0.285881 0.352795
1733 2 0.3963 0.282483 0.311356
1732 1 0.407652 0.285625 0.320934
123 2 0.493559 0.26135 0.363165
166 1 0.544237 0.375546 0.421887
168 2 0.536098 0.354641 0.432377
1970 2 0.48947 0.280791 0.489928
1875 2 0.463765 0.316968 0.452424
1874 2 0.475385 0.311575 0.412962
1873 1 0.4655 0.326849 0.422441
1488 2 0.495533 0.459624 0.304048
1487 2 0.508607 0.425724 0.317531
1486 1 0.49692 0.428804 0.311427
54 2 0.636134 0.280343 0.315993
167 2 0.546376 0.394422 0.446971
1351 1 0.633908 0.484026 0.337527
1353 2 0.634489 0.455555 0.351846
52 1 0.642373 0.257917 0.33143
1920 2 0.721024 0.364535 0.320141
1919 2 0.725189 0.315324 0.318922
1918 1 0.717589 0.336917 0.307048
1908 2 0.65447 0.400921 0.375445
1907 2 0.658013 0.352883 0.363212
1906 1 0.652123 0.378825 0.353295
466 1 0.723371 0.457821 0.286373
468 2 0.721999 0.489466 0.288181
1072 1 0.674706 0.279378 0.256128
1074 2 0.665622 0.275153 0.27646
1352 2 0.642855 0.483636 0.316346
109 1 0.781461 0.413732 0.408629
110 2 0.789407 0.396227 0.424832
111 2 0.776977 0.433884 0.430285
1884 2 0.754209 0.495582 0.312762
1883 2 0.773096 0.492438 0.313016
1882 1 0.763257 0.478034 0.324072
439 1 0.769429 0.373932 0.279306
440 2 0.780135 0.363528 0.269574
441 2 0.771679 0.402116 0.293005
467 2 0.735055 0.453074 0.291338
980 2 0.740739 0.299906 0.490166
2043 2 0.886754 0.381865 0.378784
2042 2 0.886442 0.334831 0.360519
2041 1 0.88933 0.351677 0.386498
217 1 0.832158 0.393545 0.304209
218 2 0.829054 0.362822 0.301838
219 2 0.821751 0.409273 0.304922
1745 2 0.872479 0.493264 0.401681
1893 2 0.982743 0.316045 0.413487
1892 2 0.979437 0.267036 0.405305
1891 1 0.973971 0.295376 0.406879
1848 2 0.991029 0.411709 0.351757
1846 1 0.996013 0.384874 0.340745
607 1 0.912913 0.498821 0.275014
609 2 0.920016 0.488573 0.298556
1601 2 0.965921 0.329528 0.257499
2049 2 0.0755657 0.632701 0.283221
2047 1 0.0823407 0.638509 0.257571
1998 2 0.0307012 0.634158 0.309729
1997 2 0.0333332 0.641727 0.359125
1996 1 0.0376448 0.6498 0.330478
1548 2 0.070228 0.560557 0.390092
1547 2 0.0834207 0.561349 0.353922
1546 1 0.0820671 0.559604 0.385576
1114 1 0.0200136 0.667816 0.441996
1115 2 0.0171757 0.647664 0.465547
1116 2 0.0312939 0.67645 0.448212
2048 2 0.0910307 0.616622 0.258987
182 2 0.126866 0.735745 0.269431
539 2 0.118202 0.638554 0.484827
1599 2 0.15507 0.741205 0.305317
1598 2 0.159563 0.695969 0.286431
1597 1 0.164046 0.720195 0.303408
1502 2 0.0994363 0.508341 0.298997
2076 2 0.248515 0.504963 0.449755
2075 2 0.252495 0.502898 0.400464
1685 2 0.229791 0.731781 0.297167
1684 1 0.218343 0.727629 0.288863
1084 1 0.192632 0.535577 0.388618
1085 2 0.204516 0.532767 0.386221
1086 2 0.19074 0.566938 0.391631
1162 1 0.236761 0.616676 0.338413
1163 2 0.246283 0.634735 0.33155
1164 2 0.231413 0.631795 0.362621
1238 2 0.330376 0.59347 0.496136
1953 2 0.402497 0.661851 0.370247
1952 2 0.390984 0.628512 0.392437
1951 1 0.391498 0.649431 0.368383
875 2 0.365615 0.544052 0.251382
1515 2 0.425679 0.682056 0.462519
1513 1 0.423816 0.696575 0.490493
394 1 0.542064 0.529607 0.438316
396 2 0.538861 0.560349 0.438505
994 1 0.455229 0.672813 0.473222
995 2 0.460886 0.658437 0.44906
996 2 0.46129 0.699952 0.477729
1036 1 0.496504 0.655903 0.289378
1037 2 0.507922 0.655438 0.298907
1038 2 0.493104 0.686274 0.293042
2052 2 0.623474 0.545023 0.279628
2050 1 0.628697 0.546186 0.250946
395 2 0.554026 0.530163 0.438773
1014 2 0.594096 0.732425 0.474881
1123 1 0.589547 0.621386 0.264801
1124 2 0.593299 0.621048 0.295096
1416 2 0.552369 0.688788 0.310883
1415 2 0.568421 0.662493 0.315656
1414 1 0.556666 0.65901 0.310833
94 1 0.658182 0.730199 0.307045
95 2 0.669236 0.739287 0.315202
880 1 0.661422 0.528597 0.408849
881 2 0.650836 0.530372 0.394082
882 2 0.661122 0.552041 0.430478
2034 2 0.743434 0.543505 0.415628
2033 2 0.731605 0.531792 0.378022
2032 1 0.736456 0.520003 0.404699
2019 2 0.768656 0.534119 0.486807
482 2 0.731757 0.560445 0.252077
1806 2 0.760832 0.617411 0.426422
1805 2 0.770101 0.625114 0.469737
1804 1 0.762507 0.605001 0.455475
1620 2 0.748855 0.727276 0.405084
1618 1 0.749929 0.734959 0.374248
1746 2 0.868117 0.520078 0.442819
1744 1 0.870372 0.523056 0.411625
1668 2 0.832273 0.706128 0.264651
1667 2 0.837615 0.660681 0.281328
1666 1 0.838652 0.680422 0.256414
331 1 0.98257 0.659772 0.423961
332 2 0.993551 0.653969 0.435223
333 2 0.97741 0.677829 0.446381
608 2 0.915659 0.529702 0.271723
925 1 0.958067 0.577435 0.279337
926 2 0.963205 0.55438 0.262052
927 2 0.952276 0.59537 0.257939
260 2 0.0259365 0.862064 0.494475
1842 2 0.0671807 0.769465 0.371491
1841 2 0.0833533 0.757201 0.394647
1840 1 0.0770066 0.75156 0.368194
1446 2 0.0874876 0.820319 0.440897
265 1 0.172762 0.813424 0.309745
267 2 0.169583 0.844184 0.309553
1560 2 0.167484 0.989778 0.266893
1558 1 0.173298 0.962854 0.274159
1445 2 0.0999266 0.841128 0.409066
1444 1 0.0970786 0.813491 0.423085
266 2 0.184725 0.813918 0.309879
315 2 0.265341 0.809218 0.250936
334 1 0.212074 0.934769 0.458809
335 2 0.210321 0.922584 0.487925
336 2 0.202333 0.952452 0.453275
1752 2 0.237349 0.946304 0.435399
1751 2 0.254948 0.934404 0.449625
1750 1 0.243457 0.928559 0.456323
1686 2 0.214936 0.755969 0.277361
778 1 0.233729 0.79187 0.451383
779 2 0.226575 0.767026 0.457455
780 2 0.230799 0.800914 0.421799
907 1 0.193783 0.788329 0.406393
908 2 0.185187 0.785701 0.384353
909 2 0.188613 0.804159 0.430423
1559 2 0.184351 0.967272 0.262773
1989 2 0.321204 0.815111 0.46007
1988 2 0.319266 0.766547 0.447369
1987 1 0.326055 0.792255 0.441951
475 1 0.292579 0.821316 0.336471
476 2 0.291397 0.806582 0.308346
477 2 0.281523 0.821676 0.348663
969 2 0.450907 0.807893 0.33363
1267 1 0.38186 0.825903 0.381637
1268 2 0.393822 0.826547 0.381563
1269 2 0.378629 0.856573 0.383407
535 1 0.494572 0.885139 0.33196
536 2 0.496948 0.880421 0.362872
537 2 0.482666 0.888039 0.330654
1638 2 0.462064 0.88549 0.464549
1637 2 0.477923 0.8589 0.471677
1636 1 0.46601 0.85604 0.470872
967 1 0.456766 0.780076 0.333243
968 2 0.462968 0.780568 0.305961
673 1 0.635104 0.876702 0.325728
674 2 0.630305 0.900643 0.342494
675 2 0.630207 0.850369 0.33814
1198 1 0.614434 0.892275 0.498622
1273 1 0.597471 0.87742 0.25338
1274 2 0.599813 0.89794 0.277001
96 2 0.651889 0.757321 0.306187
1697 2 0.639453 0.965497 0.484313
1461 2 0.686097 0.967015 0.405851
1459 1 0.685921 0.998067 0.398528
1387 1 0.664109 0.84288 0.392319
1388 2 0.655684 0.865504 0.391101
1389 2 0.670423 0.849729 0.418542
100 1 0.810237 0.834351 0.358596
101 2 0.812827 0.848137 0.386529
102 2 0.799648 0.846702 0.350343
1935 2 0.794693 0.756048 0.270274
1934 2 0.804614 0.793176 0.291907
1933 1 0.799117 0.765577 0.298345
1735 1 0.764595 0.995199 0.470411
1619 2 0.746485 0.765477 0.372722
1222 1 0.890783 0.806684 0.466089
1223 2 0.895516 0.78025 0.453441
1224 2 0.887016 0.823571 0.440951
1225 1 0.87243 0.908845 0.328714
1226 2 0.865907 0.885079 0.31644
1227 2 0.874842 0.899478 0.358529
2025 2 0.972288 0.998792 0.394458
2024 2 0.982706 0.957283 0.387256
2023 1 0.97164 0.968847 0.383579
1929 2 0.971501 0.872276 0.297949
1928 2 0.963826 0.830262 0.316986
1927 1 0.961833 0.853594 0.295882
10 1 0.0521763 0.24543 0.696484
12 2 0.0514978 0.245258 0.664629
1968 2 0.0629467 0.0761489 0.61498
1967 2 0.0731092 0.0954971 0.652898
1966 1 0.0654818 0.0719382 0.645876
586 1 0.0110529 0.179934 0.60454
587 2 0.0063441 0.15677 0.622533
588 2 0.00369619 0.182115 0.579471
771 2 0.0794325 0.149386 0.506499
835 1 0.0762809 0.180332 0.730793
837 2 0.0849254 0.167579 0.748793
1448 2 0.0440263 0.241728 0.589225
1447 1 0.0322056 0.24465 0.59321
1965 2 0.144779 0.047573 0.56352
1964 2 0.159572 0.0161024 0.563604
1963 1 0.147608 0.0165713 0.563612
460 1 0.18849 0.111111 0.684133
461 2 0.194775 0.137617 0.678257
462 2 0.193658 0.0887512 0.666018
727 1 0.224638 0.104268 0.630755
728 2 0.235246 0.0955855 0.61882
729 2 0.226635 0.1328 0.644007
850 1 0.220339 0.176826 0.550827
851 2 0.229051 0.157639 0.561324
852 2 0.218933 0.168815 0.52017
316 1 0.36043 0.163012 0.553178
317 2 0.350772 0.180774 0.559432
1905 2 0.330417 0.10968 0.550942
1904 2 0.345393 0.0788291 0.550951
1903 1 0.333428 0.0788 0.550928
840 2 0.310099 0.0822143 0.739118
1575 2 0.336152 0.153842 0.677174
1574 2 0.347833 0.115356 0.686924
1573 1 0.336864 0.122011 0.676056
1015 1 0.349783 0.000339814 0.72738
1017 2 0.349204 0.029909 0.739268
1413 2 0.324859 0.198906 0.617853
1412 2 0.317323 0.198053 0.664134
1411 1 0.323167 0.217005 0.643739
318 2 0.368023 0.183058 0.538817
814 1 0.417698 0.174034 0.606709
815 2 0.412881 0.157883 0.582374
816 2 0.41911 0.203681 0.595534
2085 2 0.457169 0.0170965 0.740204
2083 1 0.46292 0.045075 0.739925
1785 2 0.506333 0.0567259 0.59939
1784 2 0.521888 0.0280522 0.601337
1783 1 0.510252 0.0270688 0.593977
1138 1 0.486164 0.14175 0.505373
1139 2 0.48307 0.152968 0.53408
2058 2 0.545561 0.111732 0.665994
2057 2 0.561668 0.0854167 0.669062
2056 1 0.549776 0.0819628 0.668352
631 1 0.60874 0.199019 0.681946
632 2 0.619254 0.187617 0.671848
633 2 0.610563 0.230373 0.685315
844 1 0.660404 0.0583146 0.616123
845 2 0.667794 0.0766546 0.633249
846 2 0.650454 0.0757689 0.613059
1168 1 0.679059 0.151802 0.657228
1169 2 0.673837 0.159463 0.629562
1170 2 0.683784 0.179183 0.667693
1372 1 0.709823 0.0766419 0.564351
1373 2 0.709434 0.0993268 0.541937
1374 2 0.707551 0.0920571 0.591621
64 1 0.812541 0.099543 0.674852
66 2 0.817182 0.121242 0.694702
1992 2 0.730972 0.223039 0.634843
1990 1 0.73626 0.248001 0.620838
691 1 0.815391 0.194043 0.664763
693 2 0.805842 0.211241 0.673359
65 2 0.820704 0.0965256 0.65172
1959 2 0.895105 0.179841 0.569142
1957 1 0.899123 0.151708 0.55857
1914 2 0.893669 0.226076 0.708566
1913 2 0.896573 0.192556 0.745486
1912 1 0.887965 0.205167 0.727261
1769 2 0.895391 0.242959 0.615613
1768 1 0.885664 0.244608 0.597106
692 2 0.824571 0.214399 0.666861
1730 2 0.858512 0.238114 0.501956
1729 1 0.846548 0.238154 0.501594
895 1 0.856704 0.145756 0.746434
896 2 0.866634 0.150833 0.729377
897 2 0.851332 0.174241 0.747638
1000 1 0.901208 0.101499 0.74817
1958 2 0.910924 0.155848 0.555302
1088 2 0.951908 0.243219 0.640277
11 2 0.0445236 0.268227 0.705533
1691 2 0.00825198 0.30022 0.519806
1634 2 0.000990718 0.38812 0.726835
1449 2 0.0303763 0.276089 0.595623
1704 2 0.148175 0.321176 0.559738
1703 2 0.162698 0.345783 0.580743
1702 1 0.160061 0.320053 0.563234
1479 2 0.0960622 0.499949 0.668082
1767 2 0.196984 0.3209 0.688103
1766 2 0.185805 0.280329 0.684664
1765 1 0.191668 0.301731 0.6669
1132 1 0.188774 0.451614 0.626393
1133 2 0.200696 0.450145 0.628653
1134 2 0.186265 0.482777 0.627844
1518 2 0.277735 0.319475 0.584002
1517 2 0.289693 0.30188 0.549073
1516 1 0.278524 0.298541 0.560015
193 1 0.441557 0.454798 0.647952
194 2 0.443871 0.483417 0.635268
195 2 0.451776 0.446324 0.662218
1815 2 0.383244 0.30071 0.716888
1814 2 0.379258 0.28586 0.669845
1813 1 0.377255 0.309429 0.690678
667 1 0.423883 0.289122 0.6731
668 2 0.432057 0.307143 0.68787
669 2 0.416262 0.310085 0.660236
1971 2 0.491415 0.26854 0.538606
1969 1 0.496583 0.264887 0.510061
1788 2 0.541406 0.293086 0.571557
1787 2 0.524471 0.279143 0.589238
1786 1 0.536184 0.277165 0.595444
1470 2 0.543309 0.480422 0.527426
1468 1 0.54452 0.448986 0.531828
580 1 0.587034 0.453924 0.513158
581 2 0.592715 0.456519 0.541118
582 2 0.579422 0.478537 0.512744
1680 2 0.608887 0.354039 0.591075
1679 2 0.618123 0.334664 0.630629
1678 1 0.61032 0.327056 0.607668
1469 2 0.556211 0.443508 0.527822
1336 1 0.634801 0.461768 0.5606
211 1 0.69792 0.337983 0.515946
212 2 0.707082 0.323516 0.5305
213 2 0.702218 0.366558 0.507571
1991 2 0.727255 0.264478 0.607804
1458 2 0.651221 0.308923 0.530502
1457 2 0.668461 0.304322 0.510211
1456 1 0.657942 0.318958 0.506088
1337 2 0.641222 0.469488 0.586392
1338 2 0.639512 0.479328 0.537108
1857 2 0.743171 0.434093 0.55284
1856 2 0.730437 0.450757 0.586243
1855 1 0.73341 0.452372 0.55538
979 1 0.739733 0.271077 0.503572
981 2 0.749899 0.267329 0.519975
1995 2 0.870912 0.406004 0.539597
1994 2 0.855522 0.422228 0.515122
1993 1 0.865954 0.432229 0.527128
1770 2 0.880561 0.272405 0.604863
1731 2 0.843565 0.269048 0.501074
1111 1 0.845617 0.389826 0.639794
1112 2 0.855691 0.373823 0.633448
1113 2 0.847522 0.419008 0.627934
112 1 0.916459 0.429721 0.595476
113 2 0.928421 0.429077 0.595215
114 2 0.913692 0.460759 0.595028
239 2 0.961335 0.362235 0.732326
1740 2 0.911188 0.366375 0.655193
1739 2 0.92712 0.341638 0.643816
1738 1 0.915428 0.337203 0.648936
1635 2 0.989633 0.427814 0.734166
1633 1 0.989457 0.396549 0.727814
1087 1 0.952748 0.272636 0.652428
1089 2 0.95295 0.268222 0.684023
817 1 0.024666 0.628544 0.535171
818 2 0.0364647 0.63245 0.531587
819 2 0.0201996 0.658124 0.534068
894 2 0.00926656 0.71877 0.714523
1409 2 0.0805178 0.74466 0.666977
538 1 0.112125 0.628311 0.510333
540 2 0.109289 0.654926 0.526224
1596 2 0.161083 0.647302 0.555539
1595 2 0.159177 0.672088 0.599201
1594 1 0.160371 0.642753 0.587062
1478 2 0.103152 0.53863 0.694405
1477 1 0.102359 0.506793 0.694334
1821 2 0.184533 0.697844 0.664643
1820 2 0.200434 0.697619 0.637286
1819 1 0.190631 0.680396 0.64345
751 1 0.253724 0.621345 0.620051
752 2 0.251016 0.592558 0.608338
753 2 0.262907 0.63133 0.6022
1670 2 0.272468 0.738742 0.670621
1129 1 0.242072 0.739185 0.594174
1131 2 0.235284 0.740392 0.620422
1357 1 0.223402 0.597933 0.549244
1358 2 0.212403 0.586414 0.544246
1359 2 0.228309 0.577695 0.570155
456 2 0.354076 0.681604 0.746356