ITEM: TIMESTEP
200
ITEM: NUMBER OF ATOMS
20
ITEM: BOX BOUNDS pp pp pp
-1.0000000000000000e+01 3.0000000000000000e+01
-1.0000000000000000e+01 3.0000000000000000e+01
-1.0000000000000000e+01 3.0000000000000000e+01
ITEM: ATOMS id type xs ys zs
11 1 0.509449 0.504735 0.252458
12 1 0.520758 0.516958 0.258281
13 1 0.536346 0.52368 0.251772
14 1 0.566792 0.570659 0.255663
15 1 0.580928 0.59105 0.25153
16 1 0.598222 0.601789 0.238288
17 1 0.62536 0.60836 0.250669
18 1 0.627364 0.628368 0.244978
19 1 0.649917 0.646788 0.249977
20 1 0.666407 0.662239 0.242219
2 1 0.3517 0.337367 0.257315
1 1 0.329283 0.340113 0.252936
3 1 0.368984 0.356076 0.255119
4 1 0.377616 0.379653 0.252802
5 1 0.414312 0.402162 0.251068
6 1 0.427695 0.41853 0.252734
7 1 0.439648 0.445206 0.250762
8 1 0.454929 0.451017 0.259041
10 1 0.495215 0.47871 0.247541
9 1 0.470423 0.466146 0.246642
ITEM: TIMESTEP
300
ITEM: NUMBER OF ATOMS
20
ITEM: BOX BOUNDS pp pp pp
-1.0000000000000000e+01 3.0000000000000000e+01
-1.0000000000000000e+01 3.0000000000000000e+01
-1.0000000000000000e+01 3.0000000000000000e+01
ITEM: ATOMS id type xs ys zs
11 1 0.509042 0.50829 0.247517
12 1 0.517911 0.51292 0.260296
13 1 0.533816 0.539162 0.255601
14 1 0.563138 0.566922 0.251962
15 1 0.579928 0.59511 0.240224
16 1 0.592855 0.601417 0.227755
17 1 0.623736 0.598038 0.265123
18 1 0.634859 0.621764 0.239797
19 1 0.642649 0.64038 0.255639
20 1 0.662692 0.672445 0.247175
2 1 0.339632 0.336869 0.262531
1 1 0.341457 0.34564 0.252797
3 1 0.359775 0.362476 0.271781
4 1 0.38319 0.378245 0.243821
5 1 0.418326 0.403048 0.247498
6 1 0.426934 0.415638 0.254241
7 1 0.445956 0.450642 0.247642
8 1 0.447306 0.455097 0.266175
10 1 0.489752 0.486708 0.239086
9 1 0.47762 0.447041 0.251314
ITEM: TIMESTEP
400
ITEM: NUMBER OF ATOMS
20
ITEM: BOX BOUNDS pp pp pp
-1.0000000000000000e+01 3.0000000000000000e+01
-1.0000000000000000e+01 3.0000000000000000e+01
-1.0000000000000000e+01 3.0000000000000000e+01
ITEM: ATOMS id type xs ys zs
11 1 0.513924 0.512785 0.248351
12 1 0.523341 0.511792 0.266839
13 1 0.538686 0.540684 0.260512
14 1 0.561537 0.574575 0.242866
15 1 0.584821 0.594371 0.24186
16 1 0.60144 0.600189 0.223883
17 1 0.624459 0.596256 0.256749
18 1 0.625597 0.615847 0.238695
19 1 0.652575 0.632408 0.2579
20 1 0.656732 0.668702 0.236139
2 1 0.339167 0.338859 0.268174
1 1 0.35191 0.339281 0.249685
3 1 0.351379 0.355034 0.267044
4 1 0.387884 0.38528 0.246119
5 1 0.418913 0.402384 0.261881
6 1 0.419793 0.409384 0.257198
7 1 0.449335 0.450532 0.266727
8 1 0.431772 0.461589 0.279624
10 1 0.481124 0.489948 0.223879
9 1 0.474287 0.446304 0.257992
ITEM: TIMESTEP
500
ITEM: NUMBER OF ATOMS
20
ITEM: BOX BOUNDS pp pp pp
-1.0000000000000000e+01 3.0000000000000000e+01
-1.0000000000000000e+01 3.0000000000000000e+01
-1.0000000000000000e+01 3.0000000000000000e+01
ITEM: ATOMS id type xs ys zs
11 1 0.511755 0.517353 0.248091
12 1 0.524263 0.50998 0.266765
13 1 0.544794 0.542204 0.262062
14 1 0.565033 0.571955 0.242925
15 1 0.579017 0.59924 0.255603
16 1 0.604967 0.605713 0.209192
17 1 0.619803 0.592291 0.260415
18 1 0.62889 0.613037 0.244575
19 1 0.636622 0.63798 0.251402
20 1 0.665277 0.667798 0.24038
2 1 0.337529 0.344706 0.266406
1 1 0.351887 0.337144 0.255251
3 1 0.345697 0.366078 0.266008
4 1 0.382471 0.392976 0.249667
5 1 0.427374 0.412116 0.266322
6 1 0.415468 0.425203 0.250218
7 1 0.43812 0.443332 0.261018
8 1 0.419762 0.478069 0.273966
10 1 0.488512 0.503377 0.220079
9 1 0.466744 0.43559 0.251631
ITEM: TIMESTEP
600
ITEM: NUMBER OF ATOMS
20
ITEM: BOX BOUNDS pp pp pp
-1.0000000000000000e+01 3.0000000000000000e+01
-1.0000000000000000e+01 3.0000000000000000e+01
-1.0000000000000000e+01 3.0000000000000000e+01
ITEM: ATOMS id type xs ys zs
11 1 0.51691 0.522095 0.242488
12 1 0.543943 0.502457 0.268331
13 1 0.544308 0.533118 0.267933
14 1 0.56297 0.564199 0.234727
15 1 0.576002 0.602785 0.253908
16 1 0.611239 0.613464 0.228568
17 1 0.606643 0.585469 0.253259
18 1 0.641768 0.615473 0.246087
19 1 0.638606 0.638371 0.248829
20 1 0.663963 0.661825 0.257361
2 1 0.344555 0.33957 0.262108
1 1 0.342939 0.330999 0.264972
3 1 0.349069 0.354779 0.259084
4 1 0.386538 0.389123 0.246272
5 1 0.426608 0.401983 0.263739
6 1 0.410166 0.421805 0.249627
7 1 0.436613 0.443096 0.249285
8 1 0.416803 0.460215 0.276126
10 1 0.498849 0.497119 0.22986
9 1 0.471454 0.433847 0.249393
ITEM: TIMESTEP
700
ITEM: NUMBER OF ATOMS
20
ITEM: BOX BOUNDS pp pp pp
-1.0000000000000000e+01 3.0000000000000000e+01
-1.0000000000000000e+01 3.0000000000000000e+01
-1.0000000000000000e+01 3.0000000000000000e+01
ITEM: ATOMS id type xs ys zs
11 1 0.514523 0.529361 0.230992
12 1 0.552483 0.512998 0.270144
13 1 0.562693 0.538747 0.275787
14 1 0.572557 0.558413 0.231579
15 1 0.582811 0.603684 0.254325
16 1 0.610947 0.60997 0.232071
17 1 0.607047 0.589058 0.256083
18 1 0.650251 0.611977 0.252563
19 1 0.643026 0.641874 0.245915
20 1 0.664797 0.655453 0.24298
2 1 0.33572 0.340483 0.266165
1 1 0.33577 0.321252 0.253034
3 1 0.343517 0.355706 0.261585
4 1 0.388334 0.380739 0.257358
5 1 0.418473 0.396338 0.265482
6 1 0.405302 0.425709 0.251609
7 1 0.448752 0.439985 0.25056
8 1 0.413599 0.457543 0.272811
10 1 0.495512 0.494132 0.23526
9 1 0.473057 0.430482 0.259059
ITEM: TIMESTEP
800
ITEM: NUMBER OF ATOMS
20
ITEM: BOX BOUNDS pp pp pp
-1.0000000000000000e+01 3.0000000000000000e+01
-1.0000000000000000e+01 3.0000000000000000e+01
-1.0000000000000000e+01 3.0000000000000000e+01
ITEM: ATOMS id type xs ys zs
11 1 0.513839 0.53339 0.220911
12 1 0.549252 0.512855 0.268119
13 1 0.553693 0.530871 0.283797
14 1 0.582266 0.545026 0.234526
15 1 0.580444 0.608885 0.263743
16 1 0.612206 0.601469 0.233551
17 1 0.61372 0.591418 0.250983
18 1 0.64356 0.615485 0.251497
19 1 0.639137 0.63682 0.242724
20 1 0.668722 0.654348 0.226963
2 1 0.336644 0.346081 0.261704
1 1 0.342865 0.329538 0.247112
3 1 0.339494 0.364469 0.268663
4 1 0.386985 0.374513 0.253091
5 1 0.42033 0.401532 0.263784
6 1 0.393626 0.427253 0.249769
7 1 0.443799 0.432704 0.249352
8 1 0.409846 0.457988 0.257752
10 1 0.501335 0.50723 0.23796
9 1 0.478272 0.442724 0.253428
ITEM: TIMESTEP
900
ITEM: NUMBER OF ATOMS
20
ITEM: BOX BOUNDS pp pp pp
-1.0000000000000000e+01 3.0000000000000000e+01
-1.0000000000000000e+01 3.0000000000000000e+01
-1.0000000000000000e+01 3.0000000000000000e+01
ITEM: ATOMS id type xs ys zs
11 1 0.508556 0.528261 0.241747
12 1 0.551428 0.508969 0.25997
13 1 0.548519 0.519923 0.291516
14 1 0.575295 0.540606 0.244814
15 1 0.58246 0.61503 0.25892
16 1 0.615224 0.61301 0.242191
17 1 0.619159 0.590783 0.248614
18 1 0.657784 0.612093 0.252976
19 1 0.639118 0.630633 0.24385
20 1 0.664588 0.661235 0.217842
2 1 0.333703 0.338628 0.263564
1 1 0.344793 0.326323 0.252368
3 1 0.327399 0.360894 0.268537
4 1 0.38856 0.357573 0.246972
5 1 0.421628 0.408756 0.2495
6 1 0.386678 0.415421 0.258531
7 1 0.436522 0.431046 0.243905
8 1 0.421385 0.44121 0.253452
10 1 0.504752 0.524543 0.231189
9 1 0.48285 0.44181 0.261622
ITEM: TIMESTEP
1000
ITEM: NUMBER OF ATOMS
20
ITEM: BOX BOUNDS pp pp pp
-1.0000000000000000e+01 3.0000000000000000e+01
-1.0000000000000000e+01 3.0000000000000000e+01
-1.0000000000000000e+01 3.0000000000000000e+01
ITEM: ATOMS id type xs ys zs
11 1 0.50493 0.517061 0.254372
12 1 0.545039 0.509893 0.266824
13 1 0.552953 0.513282 0.281776
14 1 0.57303 0.549299 0.253337
15 1 0.584944 0.615906 0.25432
16 1 0.608781 0.599362 0.249767
17 1 0.617254 0.590671 0.244701
18 1 0.675844 0.608069 0.253049
19 1 0.645165 0.648666 0.238936
20 1 0.660929 0.665103 0.225642
2 1 0.335207 0.330876 0.2698
1 1 0.348956 0.323984 0.252932
3 1 0.326544 0.36051 0.277788
4 1 0.38812 0.367499 0.255863
5 1 0.427772 0.401238 0.245463
6 1 0.387338 0.407932 0.264677
7 1 0.430275 0.433335 0.239224
8 1 0.426084 0.42881 0.24958
10 1 0.493451 0.509939 0.233079
9 1 0.476291 0.44618 0.257499
ITEM: TIMESTEP
1100
ITEM: NUMBER OF ATOMS
20
ITEM: BOX BOUNDS pp pp pp
-1.0000000000000000e+01 3.0000000000000000e+01
-1.0000000000000000e+01 3.0000000000000000e+01
-1.0000000000000000e+01 3.0000000000000000e+01
ITEM: ATOMS id type xs ys zs
5 1 0.406098 0.394829 0.23489
8 1 0.431063 0.426934 0.26039
7 1 0.434801 0.436622 0.240587
10 1 0.486692 0.503902 0.223218
16 1 0.616284 0.608552 0.244839
17 1 0.614569 0.589659 0.246001
19 1 0.650158 0.640754 0.24201
20 1 0.650843 0.675235 0.220706
2 1 0.326517 0.337357 0.277545
1 1 0.346586 0.324174 0.255703
3 1 0.320235 0.357959 0.272706
4 1 0.393115 0.376319 0.265944
6 1 0.394788 0.406761 0.257866
9 1 0.480211 0.448673 0.256738
11 1 0.511098 0.517182 0.251347
12 1 0.545578 0.512693 0.257761
13 1 0.553888 0.524013 0.280169
14 1 0.57406 0.551245 0.239358
18 1 0.658064 0.609452 0.24905
15 1 0.583351 0.626719 0.257184
ITEM: TIMESTEP
1200
ITEM: NUMBER OF ATOMS
20
ITEM: BOX BOUNDS pp pp pp
-1.0000000000000000e+01 3.0000000000000000e+01
-1.0000000000000000e+01 3.0000000000000000e+01
-1.0000000000000000e+01 3.0000000000000000e+01
ITEM: ATOMS id type xs ys zs
5 1 0.399616 0.393716 0.246861
8 1 0.431662 0.427942 0.267381
7 1 0.439746 0.435463 0.242102
10 1 0.482339 0.505701 0.227633
16 1 0.612536 0.603203 0.247337
17 1 0.614029 0.591883 0.248998
19 1 0.64695 0.637008 0.234357
20 1 0.648737 0.677287 0.227005
2 1 0.329667 0.336532 0.269034
1 1 0.35452 0.328721 0.258706
3 1 0.321004 0.35315 0.284419
4 1 0.394521 0.365305 0.264793
6 1 0.394205 0.395919 0.257042
9 1 0.463671 0.460192 0.257355
11 1 0.512387 0.520655 0.252034
12 1 0.550811 0.522432 0.267216
13 1 0.562568 0.536701 0.279005
14 1 0.569993 0.552989 0.23632
18 1 0.65761 0.618423 0.252426
15 1 0.588365 0.612628 0.256121
ITEM: TIMESTEP
1300
ITEM: NUMBER OF ATOMS
20
ITEM: BOX BOUNDS pp pp pp
-1.0000000000000000e+01 3.0000000000000000e+01
-1.0000000000000000e+01 3.0000000000000000e+01
-1.0000000000000000e+01 3.0000000000000000e+01
ITEM: ATOMS id type xs ys zs
5 1 0.397359 0.40329 0.246308
8 1 0.432516 0.443368 0.266337
7 1 0.450621 0.435744 0.246039
10 1 0.489043 0.507135 0.242015
16 1 0.609567 0.588841 0.244614
17 1 0.610043 0.592729 0.246529
19 1 0.643304 0.626772 0.237366
20 1 0.647559 0.67502 0.224813
2 1 0.330566 0.329933 0.248872
1 1 0.360904 0.337597 0.254623
3 1 0.330707 0.351217 0.272827
4 1 0.386992 0.373273 0.266862
6 1 0.397992 0.401322 0.258556
9 1 0.464201 0.467037 0.267494
11 1 0.518535 0.515645 0.255502
12 1 0.557446 0.520053 0.274677
13 1 0.565243 0.537054 0.278367
14 1 0.573905 0.558562 0.241761
18 1 0.652286 0.63009 0.258707
15 1 0.592823 0.611838 0.257695
ITEM: TIMESTEP
1400
ITEM: NUMBER OF ATOMS
20
ITEM: BOX BOUNDS pp pp pp
-1.0000000000000000e+01 3.0000000000000000e+01
-1.0000000000000000e+01 3.0000000000000000e+01
-1.0000000000000000e+01 3.0000000000000000e+01
ITEM: ATOMS id type xs ys zs
5 1 0.38658 0.396704 0.240658
8 1 0.435292 0.451272 0.278012
7 1 0.448997 0.436483 0.254446
10 1 0.474801 0.505381 0.241957
16 1 0.617811 0.597646 0.236929
17 1 0.608243 0.591592 0.238908
19 1 0.639221 0.640747 0.231923
20 1 0.635622 0.674826 0.215773
2 1 0.333745 0.326514 0.246548
1 1 0.348695 0.341858 0.254322
3 1 0.340564 0.349423 0.277717
4 1 0.387823 0.378877 0.279559
6 1 0.408943 0.400597 0.265403
9 1 0.464537 0.458713 0.272524
11 1 0.525317 0.515449 0.255434
12 1 0.556635 0.522407 0.278741
13 1 0.577164 0.531195 0.275964
14 1 0.563869 0.563 0.253385
18 1 0.648603 0.641158 0.260952
15 1 0.595603 0.600173 0.263012
ITEM: TIMESTEP
1500
ITEM: NUMBER OF ATOMS
20
ITEM: BOX BOUNDS pp pp pp
-1.0000000000000000e+01 3.0000000000000000e+01
-1.0000000000000000e+01 3.0000000000000000e+01
-1.0000000000000000e+01 3.0000000000000000e+01
ITEM: ATOMS id type xs ys zs
5 1 0.390721 0.400188 0.245729
8 1 0.437178 0.460166 0.271208
7 1 0.458093 0.444754 0.255549
10 1 0.45853 0.508379 0.243775
16 1 0.592177 0.600548 0.230202
17 1 0.604881 0.577154 0.245563
19 1 0.633014 0.647609 0.236895
20 1 0.63122 0.664537 0.21219
2 1 0.337952 0.336858 0.247434
1 1 0.346973 0.33991 0.241753
3 1 0.334996 0.34868 0.273962
4 1 0.393324 0.379841 0.279205
6 1 0.414504 0.406366 0.275776
9 1 0.457428 0.47584 0.271723
11 1 0.522754 0.514651 0.255267
12 1 0.553889 0.520755 0.264063
13 1 0.569805 0.526651 0.275569
14 1 0.56098 0.569634 0.252588
18 1 0.634193 0.63502 0.252484
15 1 0.597101 0.598568 0.254301
ITEM: TIMESTEP
1600
ITEM: NUMBER OF ATOMS
20
ITEM: BOX BOUNDS pp pp pp
-1.0000000000000000e+01 3.0000000000000000e+01
-1.0000000000000000e+01 3.0000000000000000e+01
-1.0000000000000000e+01 3.0000000000000000e+01
ITEM: ATOMS id type xs ys zs
5 1 0.387052 0.41035 0.237892
8 1 0.446581 0.458657 0.272912
7 1 0.462694 0.438851 0.254755
10 1 0.462565 0.511315 0.240546
16 1 0.59325 0.607108 0.237193
17 1 0.611155 0.589821 0.248896
19 1 0.63804 0.640563 0.229372
20 1 0.642355 0.666845 0.205292
2 1 0.347014 0.338489 0.251676
1 1 0.346234 0.353514 0.243214
3 1 0.339118 0.346835 0.295746
4 1 0.388911 0.385951 0.271397
6 1 0.419665 0.399702 0.270315
9 1 0.463055 0.49418 0.278804
11 1 0.519617 0.513539 0.24397
12 1 0.566303 0.510552 0.258402
13 1 0.571684 0.526958 0.275668
14 1 0.554936 0.562918 0.248431
18 1 0.638571 0.630327 0.253557
15 1 0.600033 0.601559 0.27084
ITEM: TIMESTEP
1700
ITEM: NUMBER OF ATOMS
20
ITEM: BOX BOUNDS pp pp pp
-1.0000000000000000e+01 3.0000000000000000e+01
-1.0000000000000000e+01 3.0000000000000000e+01
-1.0000000000000000e+01 3.0000000000000000e+01
ITEM: ATOMS id type xs ys zs
5 1 0.383559 0.418575 0.232094
8 1 0.449153 0.46387 0.272798
7 1 0.467644 0.431777 0.267657
10 1 0.467199 0.528019 0.238948
16 1 0.595005 0.617123 0.243995
17 1 0.621759 0.602009 0.251809
19 1 0.63814 0.654479 0.238436
20 1 0.639282 0.670515 0.202012
2 1 0.338906 0.343852 0.251516
1 1 0.342599 0.358971 0.241081
3 1 0.345984 0.341593 0.295924
4 1 0.3866 0.391918 0.261089
6 1 0.423346 0.402591 0.276029
9 1 0.467527 0.487784 0.283124
11 1 0.51179 0.524837 0.250115
12 1 0.559891 0.504924 0.248551
13 1 0.57299 0.530627 0.280019
14 1 0.554255 0.563861 0.250831
18 1 0.631244 0.627741 0.266791
15 1 0.589696 0.593043 0.265136
ITEM: TIMESTEP
1800
ITEM: NUMBER OF ATOMS
20
ITEM: BOX BOUNDS pp pp pp
-1.0000000000000000e+01 3.0000000000000000e+01
-1.0000000000000000e+01 3.0000000000000000e+01
-1.0000000000000000e+01 3.0000000000000000e+01
ITEM: ATOMS id type xs ys zs
5 1 0.391838 0.41984 0.22127
8 1 0.448769 0.47022 0.271578
7 1 0.480702 0.425483 0.281851
10 1 0.463203 0.520962 0.244629
16 1 0.594075 0.614875 0.247017
17 1 0.621004 0.612603 0.251204
19 1 0.632144 0.660297 0.240505
20 1 0.646424 0.662097 0.196136
2 1 0.350161 0.338207 0.259021
1 1 0.340935 0.372671 0.243638
3 1 0.341528 0.351749 0.299733
4 1 0.385159 0.387918 0.275612
6 1 0.420481 0.399319 0.266107
9 1 0.478653 0.490572 0.282246
11 1 0.520073 0.523845 0.244417
12 1 0.551241 0.498461 0.256694
13 1 0.570505 0.523387 0.276573
14 1 0.555494 0.568496 0.250331
18 1 0.628136 0.635971 0.259321
15 1 0.584816 0.587772 0.262631
ITEM: TIMESTEP
1900
ITEM: NUMBER OF ATOMS
20
ITEM: BOX BOUNDS pp pp pp
-1.0000000000000000e+01 3.0000000000000000e+01
-1.0000000000000000e+01 3.0000000000000000e+01
-1.0000000000000000e+01 3.0000000000000000e+01
ITEM: ATOMS id type xs ys zs
5 1 0.392676 0.415115 0.216559
8 1 0.458842 0.476197 0.278148
7 1 0.480206 0.427364 0.291886
10 1 0.467175 0.517189 0.248434
16 1 0.589812 0.609394 0.23335
17 1 0.619754 0.606141 0.252572
19 1 0.633114 0.664439 0.244824
20 1 0.648916 0.658285 0.191972
2 1 0.342222 0.333214 0.261911
1 1 0.343186 0.37309 0.235131
3 1 0.335863 0.353965 0.300854
4 1 0.376563 0.383592 0.27825
6 1 0.433047 0.405284 0.24908
9 1 0.465208 0.514569 0.28365
11 1 0.527787 0.530191 0.251678
12 1 0.551823 0.496214 0.260794
13 1 0.569517 0.524621 0.271034
14 1 0.563331 0.57437 0.247353
18 1 0.626483 0.6405 0.247135
15 1 0.592319 0.580605 0.259555
ITEM: TIMESTEP
2000
ITEM: NUMBER OF ATOMS
20
ITEM: BOX BOUNDS pp pp pp
-1.0000000000000000e+01 3.0000000000000000e+01
-1.0000000000000000e+01 3.0000000000000000e+01
-1.0000000000000000e+01 3.0000000000000000e+01
ITEM: ATOMS id type xs ys zs
5 1 0.385107 0.404912 0.208661
8 1 0.470798 0.481362 0.276604
7 1 0.483163 0.431884 0.284608
10 1 0.462976 0.510773 0.249688
16 1 0.604595 0.6085 0.242586
17 1 0.613126 0.592006 0.257084
19 1 0.635331 0.660746 0.256116
20 1 0.659626 0.664243 0.187024
2 1 0.34968 0.326894 0.259989
1 1 0.344351 0.363535 0.23969
3 1 0.341246 0.363212 0.297551
4 1 0.377133 0.390512 0.275155
6 1 0.427379 0.413231 0.232256
9 1 0.46035 0.510455 0.285261
11 1 0.524876 0.52688 0.261742
12 1 0.549993 0.497348 0.245463
13 1 0.566797 0.520236 0.265713
14 1 0.559135 0.581941 0.246198
18 1 0.62723 0.636466 0.249714
15 1 0.582025 0.588358 0.247632
ITEM: TIMESTEP
2100
ITEM: NUMBER OF ATOMS
20
ITEM: BOX BOUNDS pp pp pp
-1.0000000000000000e+01 3.0000000000000000e+01
-1.0000000000000000e+01 3.0000000000000000e+01
-1.0000000000000000e+01 3.0000000000000000e+01
ITEM: ATOMS id type xs ys zs
5 1 0.383997 0.404476 0.208063
20 1 0.660412 0.667258 0.200296
1 1 0.341804 0.355332 0.247014
6 1 0.426479 0.41073 0.234154
12 1 0.546234 0.498965 0.245436
14 1 0.55629 0.59112 0.246487
15 1 0.572868 0.580561 0.240256
16 1 0.601049 0.623791 0.246758
2 1 0.340409 0.326244 0.263871
4 1 0.382568 0.398558 0.290568
7 1 0.477499 0.434483 0.283766
8 1 0.481812 0.481166 0.279888
10 1 0.465664 0.516888 0.248352
11 1 0.515384 0.517681 0.250869
13 1 0.567453 0.523458 0.2532
17 1 0.615468 0.590216 0.256587
18 1 0.621649 0.632852 0.247762
19 1 0.648894 0.656877 0.252894
3 1 0.335505 0.362919 0.293915
9 1 0.465176 0.506685 0.285299
ITEM: TIMESTEP
2200
ITEM: NUMBER OF ATOMS
20
ITEM: BOX BOUNDS pp pp pp
-1.0000000000000000e+01 3.0000000000000000e+01
-1.0000000000000000e+01 3.0000000000000000e+01
-1.0000000000000000e+01 3.0000000000000000e+01
ITEM: ATOMS id type xs ys zs
5 1 0.375873 0.404207 0.221599
20 1 0.657219 0.671375 0.195739
1 1 0.344066 0.356186 0.251557
6 1 0.427187 0.406292 0.241588
12 1 0.55241 0.506188 0.241656
14 1 0.558728 0.597738 0.243023
15 1 0.566591 0.578845 0.231771
16 1 0.602468 0.617729 0.247619
2 1 0.342618 0.334888 0.260711
4 1 0.380589 0.407265 0.288365
7 1 0.46644 0.427643 0.27641
8 1 0.478712 0.478495 0.269625
10 1 0.45945 0.513464 0.246175
11 1 0.509032 0.518378 0.25034
13 1 0.572228 0.534581 0.246515
17 1 0.615151 0.593036 0.247008
18 1 0.627822 0.629382 0.244957
19 1 0.646918 0.663434 0.252904
3 1 0.347647 0.356985 0.302467
9 1 0.473379 0.513383 0.296046
ITEM: TIMESTEP
2300
ITEM: NUMBER OF ATOMS
20
ITEM: BOX BOUNDS pp pp pp
-1.0000000000000000e+01 3.0000000000000000e+01
-1.0000000000000000e+01 3.0000000000000000e+01
-1.0000000000000000e+01 3.0000000000000000e+01
ITEM: ATOMS id type xs ys zs
5 1 0.385116 0.40056 0.212606
20 1 0.657819 0.665711 0.197593
1 1 0.350646 0.354099 0.248405
6 1 0.425607 0.414498 0.23394
12 1 0.551647 0.508616 0.237785
14 1 0.549651 0.603303 0.248474
15 1 0.563307 0.572641 0.22338
16 1 0.593746 0.602676 0.243049
2 1 0.338795 0.332965 0.253462
4 1 0.374306 0.409486 0.285447
7 1 0.465387 0.418288 0.275763
8 1 0.470918 0.480424 0.270436
10 1 0.462641 0.512863 0.253839
11 1 0.508282 0.515994 0.250499
13 1 0.559655 0.54202 0.233838
17 1 0.627315 0.602662 0.242647
18 1 0.627751 0.627596 0.245235
19 1 0.639398 0.666094 0.252893
3 1 0.347039 0.350734 0.306992
9 1 0.458267 0.519486 0.295262
ITEM: TIMESTEP
2400
ITEM: NUMBER OF ATOMS
20
ITEM: BOX BOUNDS pp pp pp
-1.0000000000000000e+01 3.0000000000000000e+01
-1.0000000000000000e+01 3.0000000000000000e+01
-1.0000000000000000e+01 3.0000000000000000e+01
ITEM: ATOMS id type xs ys zs
5 1 0.393118 0.394126 0.224262
20 1 0.644442 0.671185 0.206446
1 1 0.357463 0.35948 0.245366
6 1 0.422667 0.410116 0.239592
12 1 0.533025 0.514804 0.225213
14 1 0.550952 0.593996 0.2374
15 1 0.555383 0.581693 0.216275
16 1 0.587586 0.606819 0.248461
2 1 0.337523 0.328916 0.255302
4 1 0.382756 0.404354 0.281701
7 1 0.452314 0.420317 0.272396
8 1 0.477602 0.476488 0.272881
10 1 0.457786 0.512247 0.256007
11 1 0.505701 0.509697 0.251933
13 1 0.560084 0.553334 0.248436
17 1 0.61757 0.607467 0.238926
18 1 0.626145 0.623201 0.248088
19 1 0.637908 0.664459 0.25112
3 1 0.341871 0.355873 0.303333
9 1 0.465954 0.520022 0.291059
ITEM: TIMESTEP
2500
ITEM: NUMBER OF ATOMS
20
ITEM: BOX BOUNDS pp pp pp
-1.0000000000000000e+01 3.0000000000000000e+01
-1.0000000000000000e+01 3.0000000000000000e+01
-1.0000000000000000e+01 3.0000000000000000e+01
ITEM: ATOMS id type xs ys zs
5 1 0.392626 0.382655 0.238358
20 1 0.625102 0.661522 0.222447
1 1 0.376029 0.371807 0.253224
6 1 0.429112 0.422194 0.248341
12 1 0.539846 0.515397 0.231396
14 1 0.549142 0.598278 0.22947
15 1 0.556569 0.600212 0.225441
16 1 0.596019 0.610847 0.256536
2 1 0.334677 0.332456 0.266929
4 1 0.382945 0.40178 0.280391
7 1 0.454142 0.425714 0.278444
8 1 0.483959 0.473123 0.266167
10 1 0.46347 0.512597 0.244206
11 1 0.501213 0.514226 0.261523
13 1 0.552612 0.552524 0.234393
17 1 0.622543 0.607119 0.235131
18 1 0.627379 0.612188 0.247675
19 1 0.652725 0.660635 0.254875
3 1 0.34344 0.368804 0.293585
9 1 0.458887 0.518595 0.290195
ITEM: TIMESTEP
2600
ITEM: NUMBER OF ATOMS
20
ITEM: BOX BOUNDS pp pp pp
-1.0000000000000000e+01 3.0000000000000000e+01
-1.0000000000000000e+01 3.0000000000000000e+01
-1.0000000000000000e+01 3.0000000000000000e+01
ITEM: ATOMS id type xs ys zs
5 1 0.394927 0.380511 0.235577
20 1 0.627457 0.673225 0.219864
1 1 0.368811 0.365085 0.254897
6 1 0.428071 0.429608 0.261013
12 1 0.539318 0.500702 0.239147
14 1 0.551443 0.584749 0.217725
15 1 0.56075 0.60792 0.22592
16 1 0.603718 0.616352 0.263165
2 1 0.332671 0.342816 0.274441
4 1 0.384003 0.403579 0.292262
7 1 0.457888 0.430101 0.267281
8 1 0.478797 0.479666 0.259758
10 1 0.457925 0.517046 0.24805
11 1 0.499132 0.507565 0.272895
13 1 0.550374 0.546497 0.236912
17 1 0.619285 0.605384 0.228072
18 1 0.620333 0.616513 0.242998
19 1 0.652953 0.659699 0.259465
3 1 0.352299 0.381078 0.302121
9 1 0.467562 0.514456 0.29256
ITEM: TIMESTEP
2700
ITEM: NUMBER OF ATOMS
20
ITEM: BOX BOUNDS pp pp pp
-1.0000000000000000e+01 3.0000000000000000e+01
-1.0000000000000000e+01 3.0000000000000000e+01
-1.0000000000000000e+01 3.0000000000000000e+01
ITEM: ATOMS id type xs ys zs
5 1 0.39936 0.380842 0.234601
20 1 0.62964 0.677485 0.218444
1 1 0.370725 0.361854 0.25184
6 1 0.432437 0.435949 0.250793
12 1 0.530396 0.493934 0.240887
14 1 0.552573 0.588602 0.221076
15 1 0.561509 0.607342 0.23249
16 1 0.602501 0.614669 0.265392
2 1 0.334878 0.349485 0.283633
4 1 0.385352 0.397641 0.282665
7 1 0.459904 0.438019 0.266529
8 1 0.479995 0.479567 0.257951
10 1 0.452308 0.52005 0.25056
11 1 0.483814 0.507747 0.263093
13 1 0.542064 0.551477 0.247081
17 1 0.619531 0.597236 0.23203
18 1 0.625581 0.624518 0.241912
19 1 0.647083 0.654415 0.24645
3 1 0.346969 0.368655 0.302078
9 1 0.46489 0.512244 0.296247
ITEM: TIMESTEP
2800
ITEM: NUMBER OF ATOMS
20
ITEM: BOX BOUNDS pp pp pp
-1.0000000000000000e+01 3.0000000000000000e+01
-1.0000000000000000e+01 3.0000000000000000e+01
-1.0000000000000000e+01 3.0000000000000000e+01
ITEM: ATOMS id type xs ys zs
5 1 0.411414 0.389356 0.236159
20 1 0.631521 0.676164 0.212852
1 1 0.363838 0.368192 0.264347
6 1 0.427513 0.428722 0.248633
12 1 0.534976 0.501898 0.247111
14 1 0.555374 0.579789 0.22504
15 1 0.554114 0.604361 0.247686
16 1 0.598826 0.611768 0.258607
2 1 0.343986 0.351969 0.276249
4 1 0.381882 0.380858 0.265794
7 1 0.467314 0.443599 0.268955
8 1 0.473705 0.489769 0.262488
10 1 0.447744 0.530893 0.249513
11 1 0.482322 0.512926 0.262541
13 1 0.544981 0.556993 0.251832
17 1 0.606636 0.603423 0.226798
18 1 0.625583 0.629758 0.244446
19 1 0.64545 0.659758 0.246531
3 1 0.338345 0.372704 0.295482
9 1 0.467678 0.517996 0.296462
ITEM: TIMESTEP
2900
ITEM: NUMBER OF ATOMS
20
ITEM: BOX BOUNDS pp pp pp
-1.0000000000000000e+01 3.0000000000000000e+01
-1.0000000000000000e+01 3.0000000000000000e+01
-1.0000000000000000e+01 3.0000000000000000e+01
ITEM: ATOMS id type xs ys zs
5 1 0.409989 0.393863 0.231912
20 1 0.641373 0.674333 0.21195
1 1 0.365132 0.374695 0.262002
6 1 0.426318 0.424361 0.246103
12 1 0.529803 0.499183 0.250764
14 1 0.555509 0.57824 0.234388
15 1 0.559039 0.60574 0.249922
16 1 0.591275 0.608332 0.25409
2 1 0.344872 0.344611 0.278771
4 1 0.370453 0.376611 0.257893
7 1 0.472686 0.444792 0.263128
8 1 0.485836 0.492256 0.271652
10 1 0.440906 0.522818 0.240659
11 1 0.472157 0.518725 0.250129
13 1 0.536994 0.553049 0.252801
17 1 0.594328 0.617748 0.217228
18 1 0.626645 0.630299 0.245713
19 1 0.650877 0.657052 0.238918
3 1 0.332224 0.37601 0.292854
9 1 0.483531 0.507199 0.291136
ITEM: TIMESTEP
3000
ITEM: NUMBER OF ATOMS
20
ITEM: BOX BOUNDS pp pp pp
-1.0000000000000000e+01 3.0000000000000000e+01
-1.0000000000000000e+01 3.0000000000000000e+01
-1.0000000000000000e+01 3.0000000000000000e+01
ITEM: ATOMS id type xs ys zs
5 1 0.398712 0.390222 0.242403
20 1 0.64657 0.670886 0.222774
1 1 0.364398 0.367444 0.259849
6 1 0.430438 0.419314 0.243147
12 1 0.514836 0.495434 0.252258
14 1 0.564464 0.586619 0.241472
15 1 0.57155 0.60739 0.248491
16 1 0.583966 0.627658 0.250048
2 1 0.350928 0.362245 0.281328
4 1 0.376279 0.3734 0.268417
7 1 0.47148 0.450257 0.270137
8 1 0.48991 0.493955 0.2618
10 1 0.42219 0.514594 0.242261
11 1 0.483346 0.49641 0.25376
13 1 0.525529 0.555097 0.249077
17 1 0.59493 0.625533 0.222723
18 1 0.629567 0.621377 0.247569
19 1 0.645003 0.652053 0.229084
3 1 0.328987 0.380428 0.289128
9 1 0.478505 0.500194 0.284194
ITEM: TIMESTEP
3100
ITEM: NUMBER OF ATOMS
20
ITEM: BOX BOUNDS pp pp pp
-1.0000000000000000e+01 3.0000000000000000e+01
-1.0000000000000000e+01 3.0000000000000000e+01
-1.0000000000000000e+01 3.0000000000000000e+01
ITEM: ATOMS id type xs ys zs
5 1 0.392144 0.389393 0.243042
6 1 0.426616 0.416771 0.239735
10 1 0.424489 0.521445 0.239219
14 1 0.562225 0.58751 0.231084
15 1 0.572761 0.621718 0.256552
17 1 0.599555 0.61357 0.223581
18 1 0.619851 0.621078 0.257344
20 1 0.644087 0.676737 0.214845
19 1 0.645912 0.647076 0.229357
2 1 0.339181 0.363193 0.287153
1 1 0.377327 0.371843 0.265298
4 1 0.369303 0.373593 0.265654
7 1 0.469919 0.460045 0.266061
8 1 0.493553 0.508484 0.262962
11 1 0.471937 0.485672 0.249392
12 1 0.510627 0.493453 0.249222
9 1 0.470835 0.508508 0.273316
13 1 0.526127 0.546707 0.251302
16 1 0.577622 0.633008 0.257099
3 1 0.33965 0.376068 0.279712
ITEM: TIMESTEP
3200
ITEM: NUMBER OF ATOMS
20
ITEM: BOX BOUNDS pp pp pp
-1.0000000000000000e+01 3.0000000000000000e+01
-1.0000000000000000e+01 3.0000000000000000e+01
-1.0000000000000000e+01 3.0000000000000000e+01
ITEM: ATOMS id type xs ys zs
5 1 0.38284 0.400422 0.25692
6 1 0.426972 0.423909 0.245957
10 1 0.435157 0.525494 0.241643
14 1 0.565804 0.588298 0.235144
15 1 0.577829 0.631873 0.257455
17 1 0.586317 0.615297 0.239919
18 1 0.612044 0.628655 0.263546
20 1 0.643796 0.682196 0.217446
19 1 0.645039 0.644046 0.244732
2 1 0.338381 0.36574 0.286416
1 1 0.374435 0.367414 0.265113
4 1 0.376557 0.377254 0.26153
7 1 0.470188 0.446749 0.27562
8 1 0.489969 0.515541 0.260814
11 1 0.468519 0.494417 0.259897
12 1 0.509862 0.491942 0.25114
9 1 0.468198 0.50843 0.274604
13 1 0.51783 0.553251 0.257816
16 1 0.587285 0.635471 0.265874
3 1 0.343306 0.383696 0.287226
ITEM: TIMESTEP
3300
ITEM: NUMBER OF ATOMS
20
ITEM: BOX BOUNDS pp pp pp
-1.0000000000000000e+01 3.0000000000000000e+01
-1.0000000000000000e+01 3.0000000000000000e+01
-1.0000000000000000e+01 3.0000000000000000e+01
ITEM: ATOMS id type xs ys zs
5 1 0.375446 0.400799 0.261084
6 1 0.425661 0.436987 0.244395
10 1 0.438513 0.520366 0.243162
14 1 0.567481 0.574221 0.246557
15 1 0.575442 0.633429 0.256204
17 1 0.587856 0.627249 0.240507
18 1 0.61451 0.644095 0.258128
20 1 0.649681 0.680629 0.210472
19 1 0.650746 0.638596 0.235557
2 1 0.333246 0.380169 0.275801
1 1 0.375724 0.362375 0.268433
4 1 0.380863 0.375148 0.272312
7 1 0.47036 0.452521 0.284057
8 1 0.487161 0.509054 0.265737
11 1 0.470897 0.503504 0.254524
12 1 0.513262 0.488673 0.256026
9 1 0.462273 0.511094 0.271954
13 1 0.51295 0.556419 0.256111
16 1 0.585878 0.64057 0.273816
3 1 0.356252 0.395774 0.285337
ITEM: TIMESTEP
3400
ITEM: NUMBER OF ATOMS
20
ITEM: BOX BOUNDS pp pp pp
-1.0000000000000000e+01 3.0000000000000000e+01
-1.0000000000000000e+01 3.0000000000000000e+01
-1.0000000000000000e+01 3.0000000000000000e+01
ITEM: ATOMS id type xs ys zs
5 1 0.37956 0.393071 0.254715
6 1 0.425363 0.44341 0.242958
10 1 0.446696 0.505937 0.24605
14 1 0.566408 0.578837 0.24628
15 1 0.566125 0.631501 0.256833
17 1 0.589163 0.643997 0.245663
18 1 0.617102 0.641399 0.260046
20 1 0.654358 0.68227 0.21873
19 1 0.652828 0.645064 0.233119
2 1 0.35321 0.392928 0.279128
1 1 0.368293 0.374464 0.269037
4 1 0.379417 0.384383 0.273532
7 1 0.467895 0.458102 0.283679
8 1 0.478108 0.501329 0.266102
11 1 0.478023 0.507211 0.246516
12 1 0.515538 0.500177 0.247415
9 1 0.457985 0.511735 0.275514
13 1 0.527652 0.555482 0.254832
16 1 0.590407 0.647656 0.254017
3 1 0.355101 0.400115 0.285447
ITEM: TIMESTEP
3500
ITEM: NUMBER OF ATOMS
20
ITEM: BOX BOUNDS pp pp pp
-1.0000000000000000e+01 3.0000000000000000e+01
-1.0000000000000000e+01 3.0000000000000000e+01
-1.0000000000000000e+01 3.0000000000000000e+01
ITEM: ATOMS id type xs ys zs
5 1 0.383738 0.40629 0.26797
6 1 0.427571 0.438037 0.248785
10 1 0.442421 0.510844 0.241624
14 1 0.568825 0.579524 0.251897
15 1 0.563185 0.621869 0.262241
17 1 0.582019 0.647579 0.237097
18 1 0.627696 0.632919 0.270399
20 1 0.661869 0.684887 0.217888
19 1 0.654797 0.646233 0.216715
2 1 0.349398 0.386906 0.278113
1 1 0.370715 0.37246 0.268517
4 1 0.378447 0.40128 0.280557
7 1 0.463601 0.447255 0.280017
8 1 0.480812 0.489987 0.269536
11 1 0.475707 0.516262 0.242313
12 1 0.518235 0.516363 0.241778
9 1 0.466493 0.510259 0.275656
13 1 0.522533 0.56488 0.261718
16 1 0.5758 0.649162 0.24645
3 1 0.354466 0.402058 0.283567
ITEM: TIMESTEP
3600
ITEM: NUMBER OF ATOMS
20
ITEM: BOX BOUNDS pp pp pp
-1.0000000000000000e+01 3.0000000000000000e+01
-1.0000000000000000e+01 3.0000000000000000e+01
-1.0000000000000000e+01 3.0000000000000000e+01
ITEM: ATOMS id type xs ys zs
5 1 0.377728 0.408974 0.274524
6 1 0.426473 0.445848 0.246053
10 1 0.444366 0.509188 0.24217
14 1 0.573596 0.580043 0.245204
15 1 0.551244 0.608114 0.268773
17 1 0.580504 0.649966 0.230595
18 1 0.629063 0.641225 0.264394
20 1 0.644555 0.673208 0.22552
19 1 0.649973 0.655408 0.219108
2 1 0.359354 0.379603 0.27311