LAMMPS (23 Jun 2022 - Update 3)
OMP_NUM_THREADS environment is not set. Defaulting to 1 thread. (src/comm.cpp:98)
  using 1 OpenMP thread(s) per MPI task
units lj
dimension 3
boundary p p p

atom_style full
pair_style lj/cut 2.5
bond_style harmonic
read_data atomsdata.dat
Reading data file ...
  orthogonal box = (-10 -10 -10) to (30 30 30)
  1 by 1 by 1 MPI processor grid
  reading atoms ...
  20 atoms
  reading velocities ...
  20 velocities
  scanning bonds ...
  1 = max bonds/atom
  reading bonds ...
  19 bonds
Finding 1-2 1-3 1-4 neighbors ...
  special bond factors lj:    0        0        0       
  special bond factors coul:  0        0        0       
     2 = max # of 1-2 neighbors
     2 = max # of 1-3 neighbors
     4 = max # of 1-4 neighbors
     6 = max # of special neighbors
  special bonds CPU = 0.000 seconds
  read_data CPU = 0.005 seconds

thermo 100
thermo_style custom step temp pe press vol lx density
dump 2 all custom 10 dump.min.lammpstrj id x y z

fix mynve all nve
minimize 1.0e-10 1.0e-10 10000 10000
WARNING: Using 'neigh_modify every 1 delay 0 check yes' setting during minimization (src/min.cpp:187)
Generated 0 of 0 mixed pair_coeff terms from geometric mixing rule
Neighbor list info ...
  update every 1 steps, delay 0 steps, check yes
  max neighbors/atom: 2000, page size: 100000
  master list distance cutoff = 2.8
  ghost atom cutoff = 2.8
  binsize = 1.4, bins = 29 29 29
  1 neighbor lists, perpetual/occasional/extra = 1 0 0
  (1) pair lj/cut, perpetual
      attributes: half, newton on
      pair build: half/bin/newton
      stencil: half/bin/3d
      bin: standard
Per MPI rank memory allocation (min/avg/max) = 8.961 | 8.961 | 8.961 Mbytes
   Step          Temp          PotEng         Press          Volume           Lx          Density    
         0   0              0.54349275    -0.00024411383  64000          40             0.0003125    
       100   0              1.0127989e-18 -6.5073307e-14  64000          40             0.0003125    
       101   0              5.4715714e-19 -5.0694651e-14  64000          40             0.0003125    
Loop time of 0.000673569 on 1 procs for 101 steps with 20 atoms

99.5% CPU use with 1 MPI tasks x 1 OpenMP threads

Minimization stats:
  Stopping criterion = energy tolerance
  Energy initial, next-to-last, final = 
     0.543492754770204 1.01279893953122e-18 5.47157143911132e-19
  Force two-norm initial, final = 8.1286455 3.8865335e-09
  Force max component initial, final = 3.2123063 1.2742991e-09
  Final line search alpha, max atom move = 1 1.2742991e-09
  Iterations, force evaluations = 101 167

MPI task timing breakdown:
Section |  min time  |  avg time  |  max time  |%varavg| %total
---------------------------------------------------------------
Pair    | 1.2113e-05 | 1.2113e-05 | 1.2113e-05 |   0.0 |  1.80
Bond    | 4.1506e-05 | 4.1506e-05 | 4.1506e-05 |   0.0 |  6.16
Neigh   | 0.00025509 | 0.00025509 | 0.00025509 |   0.0 | 37.87
Comm    | 2.072e-05  | 2.072e-05  | 2.072e-05  |   0.0 |  3.08
Output  | 0.00023385 | 0.00023385 | 0.00023385 |   0.0 | 34.72
Modify  | 0          | 0          | 0          |   0.0 |  0.00
Other   |            | 0.0001103  |            |       | 16.37

Nlocal:             20 ave          20 max          20 min
Histogram: 1 0 0 0 0 0 0 0 0 0
Nghost:              0 ave           0 max           0 min
Histogram: 1 0 0 0 0 0 0 0 0 0
Neighs:              0 ave           0 max           0 min
Histogram: 1 0 0 0 0 0 0 0 0 0

Total # of neighbors = 0
Ave neighs/atom = 0
Ave special neighs/atom = 5.4
Neighbor list builds = 21
Dangerous builds = 1


dump mydmp all atom 100 dump.lammpstrj

fix mynve all nve
fix mylgv all langevin 1.0 1.0 0.1 1530917
neigh_modify every 1 delay 5 check yes
timestep 0.005
run 100000
Generated 0 of 0 mixed pair_coeff terms from geometric mixing rule
Per MPI rank memory allocation (min/avg/max) = 7.836 | 7.836 | 7.836 Mbytes
   Step          Temp          PotEng         Press          Volume           Lx          Density    
       101   0              5.4715714e-19 -5.0694651e-14  64000          40             0.0003125    
       200   0.87590153     0.12650125     0.00021710029  64000          40             0.0003125    
       300   0.96985852     0.23384865     0.00018487457  64000          40             0.0003125    
       400   1.0609015      0.4129119      0.00014707413  64000          40             0.0003125    
       500   1.1051681      0.70834706     5.6573635e-05  64000          40             0.0003125    
       600   0.9953615      0.6513553      4.3857615e-05  64000          40             0.0003125    
       700   0.99106861     0.7262062      1.0415032e-05  64000          40             0.0003125    
       800   1.4589631      0.94152927     9.0995592e-05  64000          40             0.0003125    
       900   1.0959805      1.2178446     -8.2710548e-05  64000          40             0.0003125    
      1000   1.1311643      0.96213791     1.1168494e-06  64000          40             0.0003125    
      1100   1.4139427      0.88128168     9.941484e-05   64000          40             0.0003125    
      1200   1.0667873      0.77238116     4.3546286e-05  64000          40             0.0003125    
      1300   0.99142706     0.66735017     4.9699704e-05  64000          40             0.0003125    
      1400   0.98435748     0.61521336     4.7085512e-05  64000          40             0.0003125    
      1500   1.1928366      0.67842635     0.00010628602  64000          40             0.0003125    
      1600   0.9882871      0.74339593    -2.8963123e-07  64000          40             0.0003125    
      1700   0.69035126     0.77455078    -0.00010543533  64000          40             0.0003125    
      1800   1.047994       0.88054814    -3.5906685e-05  64000          40             0.0003125    
      1900   1.0087581      0.94790198    -6.9511439e-05  64000          40             0.0003125    
      2000   1.0284734      1.1543868     -0.00010950742  64000          40             0.0003125    
      2100   1.2541799      1.1174941     -3.7240097e-05  64000          40             0.0003125    
      2200   1.1942911      1.0061783     -3.162637e-05   64000          40             0.0003125    
      2300   0.99782262     1.1060462     -0.00011941872  64000          40             0.0003125    
      2400   1.4163636      0.7949248      9.7811121e-05  64000          40             0.0003125    
      2500   1.3795232      0.84161645     0.00022935052  64000          40             0.0003125    
      2600   0.75503653     0.88224029    -0.0001451594   64000          40             0.0003125    
      2700   0.89082534     0.75566083    -6.1193203e-05  64000          40             0.0003125    
      2800   1.1469795      0.56416857     8.4322893e-05  64000          40             0.0003125    
      2900   0.99907286     0.6647212      1.2864137e-05  64000          40             0.0003125    
      3000   1.026059       0.68231053     4.7864443e-05  64000          40             0.0003125    
      3100   1.173894       0.66797968     4.3920477e-05  64000          40             0.0003125    
      3200   1.2441604      0.7978117      1.2279683e-05  64000          40             0.0003125    
      3300   1.1373723      0.8331203     -2.1057647e-05  64000          40             0.0003125    
      3400   1.0359096      0.55777248     0.00013680394  64000          40             0.0003125    
      3500   1.2522463      0.58648867     0.00012684716  64000          40             0.0003125    
      3600   1.117581       0.74237445     5.2794628e-05  64000          40             0.0003125    
      3700   1.1091098      1.0574024      2.5984736e-06  64000          40             0.0003125    
      3800   0.81236245     0.80578111    -8.3099334e-05  64000          40             0.0003125    
      3900   0.99047946     0.68506333     1.3791931e-05  64000          40             0.0003125    
      4000   0.95213726     0.92505008    -6.6030568e-05  64000          40             0.0003125    
      4100   1.4469104      0.97845696     5.4169727e-05  64000          40             0.0003125    
      4200   0.78081207     0.68318868    -9.5285252e-05  64000          40             0.0003125    
      4300   1.2061595      0.61471299     5.2286524e-05  64000          40             0.0003125    
      4400   0.93401226     0.58657385     2.5893761e-06  64000          40             0.0003125    
      4500   0.88472137     0.60892161     2.6143561e-05  64000          40             0.0003125    
      4600   1.0131271      0.55005582     6.9551333e-05  64000          40             0.0003125    
      4700   0.98984438     0.5423506      5.0317294e-05  64000          40             0.0003125    
      4800   1.1207726      0.55028092     8.1644654e-05  64000          40             0.0003125    
      4900   0.89436514     0.53644117     2.5225866e-05  64000          40             0.0003125    
      5000   1.1225505      0.79828572     1.413019e-05   64000          40             0.0003125    
      5100   0.94126716     0.77964755    -2.0689283e-05  64000          40             0.0003125    
      5200   0.97822477     0.56967732     4.5249495e-05  64000          40             0.0003125    
      5300   0.90905693     0.628671       7.3301325e-06  64000          40             0.0003125    
      5400   1.2360587      0.54082076     0.00011365821  64000          40             0.0003125    
      5500   1.4318601      0.61877446     0.00017138256  64000          40             0.0003125    
      5600   0.67659924     0.51889542    -3.7713918e-05  64000          40             0.0003125    
      5700   1.0722459      0.37542297     0.00012269932  64000          40             0.0003125    
      5800   1.2476304      0.45314436     0.00021145878  64000          40             0.0003125    
      5900   0.78789734     0.5292582     -5.2307678e-05  64000          40             0.0003125    
      6000   0.82002186     0.51879582    -7.9555157e-05  64000          40             0.0003125    
      6100   0.73122439     0.48330047    -6.8405438e-05  64000          40             0.0003125    
      6200   1.3018164      0.68925996     3.7483082e-05  64000          40             0.0003125    
      6300   1.4465607      0.9465515     -4.5128183e-05  64000          40             0.0003125    
      6400   0.69674042     0.88501285    -0.00021717535  64000          40             0.0003125    
      6500   1.1017025      0.78858101    -7.4724034e-05  64000          40             0.0003125    
      6600   0.98112108     0.59898611    -1.8165282e-05  64000          40             0.0003125    
      6700   1.06365        0.88793197    -0.0001294706   64000          40             0.0003125    
      6800   1.188938       0.91809442    -8.8457761e-05  64000          40             0.0003125    
      6900   1.2104498      0.93024499    -0.00011194006  64000          40             0.0003125    
      7000   1.243877       0.77159662    -9.5860525e-05  64000          40             0.0003125    
      7100   1.4511677      0.47581966     0.00032183439  64000          40             0.0003125    
      7200   1.0727804      0.68035369    -0.00015293689  64000          40             0.0003125    
      7300   1.4194854      0.49147455     2.2071744e-05  64000          40             0.0003125    
      7400   1.2447393      0.61644154    -3.9997358e-05  64000          40             0.0003125    
      7500   1.1611349      0.43842145     1.5095527e-05  64000          40             0.0003125    
      7600   1.5559934      0.32385726     0.00015686166  64000          40             0.0003125    
      7700   1.0067558      0.28373883    -2.7026755e-05  64000          40             0.0003125    
      7800   1.0830172      0.28120965     7.5244874e-05  64000          40             0.0003125    
      7900   1.2453138      0.58521637    -2.3706303e-06  64000          40             0.0003125    
      8000   1.1920849      0.75442664    -3.2818289e-05  64000          40             0.0003125    
      8100   1.001719       0.87958458    -0.0001557385   64000          40             0.0003125    
      8200   0.94957117     0.73368621    -5.1873893e-05  64000          40             0.0003125    
      8300   0.9015011      0.86550813    -0.000207039    64000          40             0.0003125    
      8400   1.3013163      0.89169934    -8.2916378e-05  64000          40             0.0003125    
      8500   0.82002399     1.0002773     -0.00030451353  64000          40             0.0003125    
      8600   1.1837139      1.0100233     -0.0001764694   64000          40             0.0003125    
      8700   0.938883       0.70072245    -0.00012557261  64000          40             0.0003125    
      8800   0.85240201     0.67949051    -0.00013466002  64000          40             0.0003125    
      8900   0.91839883     0.5223201     -0.00012742977  64000          40             0.0003125    
      9000   0.9494685      0.21195645    -4.2643367e-05  64000          40             0.0003125    
      9100   0.72845675     0.41466857     0.00011890242  64000          40             0.0003125    
      9200   1.3269052      0.35277701     0.00012311911  64000          40             0.0003125    
      9300   1.278016       0.41278142     0.00019706196  64000          40             0.0003125    
      9400   1.1157173      0.63349017     9.7258645e-05  64000          40             0.0003125    
      9500   1.1017576      0.6578934      1.3593877e-05  64000          40             0.0003125    
      9600   0.84820706     0.88624313    -0.00021279779  64000          40             0.0003125    
      9700   0.85512371     0.61663426    -0.00017351633  64000          40             0.0003125    
      9800   0.86366476     0.37686695     1.0189664e-05  64000          40             0.0003125    
      9900   0.6676246      0.51267902    -0.00015707694  64000          40             0.0003125    
     10000   1.1753922      0.52262559     8.5109617e-05  64000          40             0.0003125    
     10100   1.2816801      0.58690517     2.2343441e-05  64000          40             0.0003125    
     10200   0.86537736     0.82967397     2.789148e-05   64000          40             0.0003125    
     10300   0.78811255     0.7381863     -0.00017766989  64000          40             0.0003125    
     10400   1.04302        0.79189806    -0.00011649779  64000          40             0.0003125    
     10500   1.0621641      0.58086435    -8.2309189e-05  64000          40             0.0003125    
     10600   1.2100501      0.51689752     1.507348e-05   64000          40             0.0003125    
     10700   1.2936826      0.5611559      8.298723e-06   64000          40             0.0003125    
     10800   0.83199458     0.65995368    -0.00013729788  64000          40             0.0003125    
     10900   1.0846051      0.48998902     8.4504638e-05  64000          40             0.0003125    
     11000   1.2606059      0.54087553     0.00015994866  64000          40             0.0003125    
     11100   0.91770578     0.57209319    -4.7980531e-05  64000          40             0.0003125    
     11200   0.95022689     0.81876189     7.7324038e-05  64000          40             0.0003125    
     11300   0.7582499      0.69812656    -0.0001465865   64000          40             0.0003125    
     11400   1.3118646      0.70715586     1.5373978e-05  64000          40             0.0003125    
     11500   1.1231958      0.71269477    -3.4010842e-05  64000          40             0.0003125    
     11600   1.0289472      0.73343363    -0.00011295561  64000          40             0.0003125    
     11700   1.058103       0.47552932     0.00011538905  64000          40             0.0003125    
     11800   0.75024495     0.47143611    -0.0001125951   64000          40             0.0003125    
     11900   0.66345082     0.69128792    -0.00019210376  64000          40             0.0003125    
     12000   0.93777236     0.83419344    -0.00016244746  64000          40             0.0003125    
     12100   0.90799363     0.91900379    -0.00014392191  64000          40             0.0003125    
     12200   1.3059703      0.8327172      3.3350552e-05  64000          40             0.0003125    
     12300   1.0457454      0.92169291    -3.3826966e-05  64000          40             0.0003125    
     12400   0.95123392     0.77708349    -7.7518153e-05  64000          40             0.0003125    
     12500   1.1471953      0.69470758    -1.5758209e-05  64000          40             0.0003125    
     12600   0.80006487     0.69295412    -4.2448315e-05  64000          40             0.0003125    
     12700   1.0119803      0.76654097    -9.5609598e-05  64000          40             0.0003125    
     12800   1.0684205      1.0148705     -0.00011452889  64000          40             0.0003125    
     12900   1.0032959      1.0353651     -0.00012732353  64000          40             0.0003125    
     13000   1.0614606      1.1695094     -0.00014721613  64000          40             0.0003125    
     13100   0.96391254     0.87124837    -0.00017124353  64000          40             0.0003125    
     13200   1.3754902      0.9584106     -2.222401e-05   64000          40             0.0003125    
     13300   1.1493241      1.1287284     -0.00010919128  64000          40             0.0003125    
     13400   1.4076456      1.0393717     -1.7801991e-05  64000          40             0.0003125    
     13500   0.97475691     0.7957633     -7.7810772e-05  64000          40             0.0003125    
     13600   1.0729646      0.46614835    -2.6784348e-05  64000          40             0.0003125    
     13700   1.7502395      0.5894962      0.00015851848  64000          40             0.0003125    
     13800   1.0248764      1.1241762     -0.0001932395   64000          40             0.0003125    
     13900   1.2873301      0.76924887     6.2609244e-05  64000          40             0.0003125    
     14000   1.1466878      0.7628964     -2.0879773e-05  64000          40             0.0003125    
     14100   1.1739958      0.53212995    -7.6307364e-05  64000          40             0.0003125    
     14200   1.0071884      0.48818223    -7.2077762e-05  64000          40             0.0003125    
     14300   0.96909001     0.37431281    -3.3861917e-05  64000          40             0.0003125    
     14400   0.79569868     0.30235698     8.0999947e-07  64000          40             0.0003125    
     14500   0.88970188     0.51606926    -7.4995287e-05  64000          40             0.0003125    
     14600   0.88599773     0.67384701    -0.00022171875  64000          40             0.0003125    
     14700   1.2104719      0.38007163     2.8507388e-05  64000          40             0.0003125    
     14800   1.0655397      0.52688492     2.3493144e-07  64000          40             0.0003125    
     14900   1.3408743      0.61677687     9.946672e-05   64000          40             0.0003125    
     15000   1.0201688      0.83917006    -0.0001284065   64000          40             0.0003125    
     15100   1.0870568      0.72257232    -4.7436491e-05  64000          40             0.0003125    
     15200   0.90759215     0.71850303     4.9433443e-06  64000          40             0.0003125    
     15300   0.90020173     0.91699003    -0.0002174684   64000          40             0.0003125    
     15400   0.85069322     0.59153085    -6.9283945e-05  64000          40             0.0003125    
     15500   1.102317       0.36415824     0.00012816006  64000          40             0.0003125    
     15600   1.0475451      0.34664925     3.6671486e-05  64000          40             0.0003125    
     15700   1.0496643      0.29190439     7.3560675e-05  64000          40             0.0003125    
     15800   1.1976851      0.22252226     3.4356238e-05  64000          40             0.0003125    
     15900   0.87612896     0.41106594    -0.00013263388  64000          40             0.0003125    
     16000   1.5228404      0.49392773     7.6128109e-05  64000          40             0.0003125    
     16100   1.1514781      0.28093046     0.00020135485  64000          40             0.0003125    
     16200   0.91783091     0.52615894    -1.7885928e-07  64000          40             0.0003125    
     16300   0.90052651     0.3610766     -5.7232827e-05  64000          40             0.0003125    
     16400   0.80294197     0.44862259     0.00035627892  64000          40             0.0003125    
     16500   0.93069239     0.40738883     9.1825197e-05  64000          40             0.0003125    
     16600   1.1166933      0.28142825     3.38177e-06    64000          40             0.0003125    
     16700   0.83451489     0.50516111    -0.00010612672  64000          40             0.0003125    
     16800   0.62435792     0.60445467    -0.00024016395  64000          40             0.0003125    
     16900   0.91976043     0.69502497    -0.00017197752  64000          40             0.0003125    
     17000   1.2402238      0.71332068    -9.0506927e-05  64000          40             0.0003125    
     17100   1.3570343      0.95557024    -2.1055853e-05  64000          40             0.0003125    
     17200   1.1122482      0.69814892    -0.00015993714  64000          40             0.0003125    
     17300   0.8825514      0.4930215      6.6113431e-05  64000          40             0.0003125    
     17400   0.95234862     0.81516639    -0.00020141545  64000          40             0.0003125    
     17500   1.3019416      0.70097766    -5.9851353e-05  64000          40             0.0003125    
     17600   1.0425633      0.32228864    -9.8947449e-05  64000          40             0.0003125    
     17700   1.0709531      0.42167652    -6.7918748e-05  64000          40             0.0003125    
     17800   1.0361925      0.42718985    -2.3219033e-05  64000          40             0.0003125    
     17900   0.90608862     0.36630292    -3.8992958e-05  64000          40             0.0003125    
     18000   1.1632623      0.30154858     0.00011440471  64000          40             0.0003125    
     18100   0.75426503     0.17666854     0.00010456993  64000          40             0.0003125    
     18200   1.4335603      0.40493877     8.0088779e-05  64000          40             0.0003125    
     18300   1.2284626      0.37107222     3.2785853e-05  64000          40             0.0003125    
     18400   1.2165347      0.39705345     2.9239862e-05  64000          40             0.0003125    
     18500   1.2410696      0.36895863     0.00020497882  64000          40             0.0003125    
     18600   1.027956       0.49088998     6.8261863e-05  64000          40             0.0003125    
     18700   0.98579362     0.61700632    -2.8952352e-05  64000          40             0.0003125    
     18800   1.2068544      0.34779366     7.2663712e-05  64000          40             0.0003125    
     18900   0.99196442     0.36611174    -1.8879227e-05  64000          40             0.0003125    
     19000   1.1525567      0.29038399     0.00016332536  64000          40             0.0003125    
     19100   0.99349999     0.40187901     6.5144854e-06  64000          40             0.0003125    
     19200   1.1707266      0.48828007     8.7362313e-05  64000          40             0.0003125    
     19300   1.0316541      0.5776126     -2.0418623e-05  64000          40             0.0003125    
     19400   1.2991548      0.62347954     6.3041331e-05  64000          40             0.0003125    
     19500   1.2071213      0.76748729    -2.9252383e-05  64000          40             0.0003125    
     19600   0.88627969     0.6911501     -0.00013402689  64000          40             0.0003125    
     19700   1.0599569      0.52304933    -5.3277397e-07  64000          40             0.0003125    
     19800   1.252148       0.74822419    -2.1806075e-05  64000          40             0.0003125    
     19900   1.0204835      1.0351453     -0.00016016622  64000          40             0.0003125    
     20000   1.1805279      0.99457642     0.0001037122   64000          40             0.0003125    
     20100   0.91508217     1.2063898     -0.00026712223  64000          40             0.0003125    
     20200   0.96967545     0.70756461    -0.00018364239  64000          40             0.0003125    
     20300   1.1185748      0.55554632     5.0631052e-05  64000          40             0.0003125    
     20400   1.2075048      0.54009718    -9.4647186e-05  64000          40             0.0003125    
     20500   0.86482337     0.48072571    -6.2463061e-05  64000          40             0.0003125    
     20600   1.0456511      0.44106398     1.8305195e-06  64000          40             0.0003125    
     20700   1.1094006      0.45205024     4.4719478e-05  64000          40             0.0003125    
     20800   0.72811482     0.5579651     -0.00013913192  64000          40             0.0003125    
     20900   0.97496734     0.48888699    -6.5816478e-05  64000          40             0.0003125    
     21000   1.2147971      0.53988943    -5.2442007e-05  64000          40             0.0003125    
     21100   0.72794484     0.39454425    -0.0001852336   64000          40             0.0003125    
     21200   0.92406895     0.49244544    -0.00011700531  64000          40             0.0003125    
     21300   1.2897967      0.78871347    -3.6436893e-05  64000          40             0.0003125    
     21400   0.89907709     0.72746061    -0.00016599326  64000          40             0.0003125    
     21500   1.2716045      0.54870257     0.00023330749  64000          40             0.0003125    
     21600   1.1477159      0.68491636     0.00010094135  64000          40             0.0003125    
     21700   1.0809357      0.4374042      8.8380304e-05  64000          40             0.0003125    
     21800   1.0581416      0.79181456     0.0004990857   64000          40             0.0003125    
     21900   0.71794066     0.51684729    -0.0002016427   64000          40             0.0003125    
     22000   1.3407005      0.85685787     2.6754383e-05  64000          40             0.0003125    
     22100   1.098953       0.85869751    -0.00016064091  64000          40             0.0003125    
     22200   1.0443062      0.55859281     4.5051866e-05  64000          40             0.0003125    
     22300   0.97471166     0.70715902    -0.00014427292  64000          40             0.0003125    
     22400   0.6959672      0.81346996    -0.0002500908   64000          40             0.0003125    
     22500   1.2010309      0.84756158    -0.00012812215  64000          40             0.0003125    
     22600   1.2173123      0.58547185     0.00023253007  64000          40             0.0003125    
     22700   0.89935558     0.70301587    -8.5982841e-05  64000          40             0.0003125    
     22800   1.0678072      0.90719129     0.00046032888  64000          40             0.0003125    
     22900   1.2022953      0.79268476    -6.0541593e-05  64000          40             0.0003125    
     23000   1.2074745      0.74445472    -5.3466982e-05  64000          40             0.0003125    
     23100   1.1144635      0.55338525     9.9763639e-05  64000          40             0.0003125    
     23200   1.116334       0.31971999     6.0128118e-05  64000          40             0.0003125    
     23300   1.4725918      0.58189868     8.2012685e-05  64000          40             0.0003125    
     23400   1.0513383      0.74662196    -0.00013401897  64000          40             0.0003125    
     23500   1.0925615      0.81184471    -3.9898874e-05  64000          40             0.0003125    
     23600   1.108963       0.96069262    -0.00015998915  64000          40             0.0003125    
     23700   0.96566529     0.99563733    -6.737313e-05   64000          40             0.0003125    
     23800   1.0067919      1.0266013     -0.00019951526  64000          40             0.0003125    
     23900   1.6569287      0.7221297      7.4622458e-05  64000          40             0.0003125    
     24000   0.96758414     0.633085      -6.0620279e-05  64000          40             0.0003125    
     24100   1.0432838      0.73950238    -0.00012656717  64000          40             0.0003125    
     24200   0.96868422     0.48229464    -2.2980775e-05  64000          40             0.0003125    
     24300   1.088702       0.68676959    -4.1328215e-05  64000          40             0.0003125    
     24400   1.4987797      0.47211323     0.00010021635  64000          40             0.0003125    
     24500   0.83171346     0.65945918    -9.1543338e-05  64000          40             0.0003125    
     24600   0.95637194     0.68915985    -0.00011469743  64000          40             0.0003125    
     24700   1.0713076      0.6492105     -8.1751992e-05  64000          40             0.0003125    
     24800   0.67070855     0.59002387     5.9835745e-06  64000          40             0.0003125    
     24900   0.97126131     0.25405853     4.4788351e-05  64000          40             0.0003125    
     25000   0.97389641     0.45386731     0.00018410002  64000          40             0.0003125    
     25100   0.90099969     0.46768974    -4.0532398e-05  64000          40             0.0003125    
     25200   1.203776       0.43050587     0.00011354506  64000          40             0.0003125    
     25300   1.0473103      0.67255833     0.00015451471  64000          40             0.0003125    
     25400   1.3641561      0.57485528     0.00016203183  64000          40             0.0003125    
     25500   0.7337101      0.67622956    -0.0001272799   64000          40             0.0003125    
     25600   1.0512929      0.56601171    -1.4890053e-06  64000          40             0.0003125    
     25700   1.2837361      0.39245187     0.0001135359   64000          40             0.0003125    
     25800   0.79098044     0.43471802    -8.0903464e-06  64000          40             0.0003125    
     25900   0.76289401     0.64266189    -0.00011575506  64000          40             0.0003125    
     26000   0.93880284     0.78142516     0.00013408821  64000          40             0.0003125    
     26100   1.0035478      0.74428005    -6.496362e-05   64000          40             0.0003125    
     26200   0.99607088     0.79835014    -4.4414397e-05  64000          40             0.0003125    
     26300   1.4347252      0.86831804     0.00011813576  64000          40             0.0003125    
     26400   1.0001431      0.60959608    -1.996997e-05   64000          40             0.0003125    
     26500   0.87174266     0.57293885    -3.4393507e-06  64000          40             0.0003125    
     26600   1.1944825      0.65683989     3.5039149e-05  64000          40             0.0003125    
     26700   1.1328911      0.63387181     1.6102783e-05  64000          40             0.0003125    
     26800   1.3962923      0.61058004     0.00012306379  64000          40             0.0003125    
     26900   1.2185095      0.56414348     9.7585702e-05  64000          40             0.0003125    
     27000   1.2766365      0.59298298     4.2806208e-05  64000          40             0.0003125    
     27100   1.0962418      1.1606353     -0.00016205442  64000          40             0.0003125    
     27200   1.4626832      0.79338968     2.6337853e-05  64000          40             0.0003125    
     27300   1.2130059      0.812685       3.2149626e-05  64000          40             0.0003125    
     27400   1.3595293      0.7903987     -0.00010309177  64000          40             0.0003125    
     27500   0.84542073     0.89819817     0.00037805684  64000          40             0.0003125    
     27600   1.4910377      0.83540567     1.3881998e-05  64000          40             0.0003125    
     27700   1.0254579      0.76366429    -0.00018088984  64000          40             0.0003125    
     27800   0.99495856     0.79600099    -0.00017975293  64000          40             0.0003125    
     27900   1.0065228      0.50837735    -0.00011885431  64000          40             0.0003125    
     28000   1.1214534      0.75937586    -4.1752916e-05  64000          40             0.0003125    
     28100   1.2310588      0.79163237     0.00018577485  64000          40             0.0003125    
     28200   1.2287936      0.71923459    -0.00010045825  64000          40             0.0003125    
     28300   0.76974398     0.70550364    -0.00021676873  64000          40             0.0003125    
     28400   0.7179554      0.71503527    -6.2481121e-05  64000          40             0.0003125    
     28500   1.0598123      0.82359835     8.1234982e-05  64000          40             0.0003125    
     28600   1.181405       0.907983      -0.00013423015  64000          40             0.0003125    
     28700   0.73227489     1.3863957     -0.0004047424   64000          40             0.0003125    
     28800   1.2993626      1.0487389     -8.223328e-05   64000          40             0.0003125    
     28900   1.2452355      0.97786153     1.9835423e-05  64000          40             0.0003125    
     29000   0.99652115     0.99532319    -0.00017001521  64000          40             0.0003125    
     29100   0.73120799     0.74611766    -0.00019998503  64000          40             0.0003125    
     29200   1.4488883      1.0041643      2.9799804e-05  64000          40             0.0003125    
     29300   0.97090515     0.92070192    -0.00017399789  64000          40             0.0003125    
     29400   1.0963121      0.90992568     7.0508765e-05  64000          40             0.0003125    
     29500   0.98605708     0.84049992    -0.00010049913  64000          40             0.0003125    
     29600   0.98253529     0.74401826     0.00014995102  64000          40             0.0003125    
     29700   0.82124382     0.84890517    -0.00031816737  64000          40             0.0003125    
     29800   0.89772253     0.76798994    -0.00015048773  64000          40             0.0003125    
     29900   1.1513747      0.84254075    -7.6209097e-05  64000          40             0.0003125    
     30000   1.1468682      0.63609289     0.00012204864  64000          40             0.0003125    
     30100   0.84605049     0.49749041    -0.00013403826  64000          40             0.0003125    
     30200   0.90205029     0.60882493    -7.3106146e-05  64000          40             0.0003125    
     30300   1.1168379      0.57097589    -1.9836821e-05  64000          40             0.0003125    
     30400   0.75416672     0.80548261     0.0004427728   64000          40             0.0003125    
     30500   1.2106873      0.5169738      0.00032639169  64000          40             0.0003125    
     30600   0.89404776     0.49957827     4.5751184e-05  64000          40             0.0003125    
     30700   1.0501501      0.55558121     1.1563229e-05  64000          40             0.0003125    
     30800   1.0227933      0.4878084     -8.749456e-05   64000          40             0.0003125    
     30900   1.0884404      0.79193966    -8.1210673e-05  64000          40             0.0003125    
     31000   1.1868384      0.63703606    -6.4998877e-05  64000          40             0.0003125    
     31100   1.0558472      0.64212435     1.0921474e-05  64000          40             0.0003125    
     31200   0.87976725     0.5071344     -8.4699122e-05  64000          40             0.0003125    
     31300   1.0390891      0.56071826    -3.9446357e-05  64000          40             0.0003125    
     31400   1.1134017      0.48056346     0.000115047    64000          40             0.0003125    
     31500   0.92939402     0.50260171     8.2229545e-05  64000          40             0.0003125    
     31600   0.99571533     0.34206544     1.5782982e-05  64000          40             0.0003125    
     31700   1.1537083      0.58705059     7.6813756e-05  64000          40             0.0003125    
     31800   0.9655235      0.66657757     5.3582886e-05  64000          40             0.0003125    
     31900   0.9834339      0.64199916    -0.00014809025  64000          40             0.0003125    
     32000   1.4874494      0.75019235     4.1538133e-05  64000          40             0.0003125    
     32100   1.324744       0.67869379     2.9240453e-05  64000          40             0.0003125    
     32200   1.3396767      0.52563763     5.593239e-05   64000          40             0.0003125    
     32300   0.94855346     0.46525172     0.00011988343  64000          40             0.0003125    
     32400   0.91491973     0.45385108    -7.0987872e-06  64000          40             0.0003125    
     32500   0.93018451     0.67500884     1.0017612e-05  64000          40             0.0003125    
     32600   1.01714        0.64438135    -2.9813721e-05  64000          40             0.0003125    
     32700   0.94594753     0.51438831    -1.7839815e-05  64000          40             0.0003125    
     32800   1.0171429      0.55720953     9.6573643e-05  64000          40             0.0003125    
     32900   0.95444106     0.50031575    -2.4613195e-05  64000          40             0.0003125    
     33000   1.1887859      0.59795287     4.6666734e-05  64000          40             0.0003125    
     33100   1.0083206      0.67186125    -2.7712575e-05  64000          40             0.0003125    
     33200   1.336414       0.69304478     9.5293972e-05  64000          40             0.0003125    
     33300   1.0193002      0.75140055    -3.8379546e-05  64000          40             0.0003125    
     33400   0.81025965     0.92416505    -0.00014630882  64000          40             0.0003125    
     33500   1.0317048      0.84139153    -5.8415194e-05  64000          40             0.0003125    
     33600   1.0928147      0.79564184    -6.8603554e-05  64000          40             0.0003125    
     33700   1.1249051      0.75289401    -7.3032783e-05  64000          40             0.0003125    
     33800   1.2974903      0.61963795     7.2262241e-05  64000          40             0.0003125    
     33900   1.160822       0.62633401    -4.3990452e-06  64000          40             0.0003125    
     34000   1.0341653      0.67731132    -6.3432977e-05  64000          40             0.0003125    
     34100   1.1465391      0.94147709    -4.8811701e-05  64000          40             0.0003125    
     34200   0.78946569     0.70170049    -0.00013865705  64000          40             0.0003125    
     34300   1.1222532      0.79497509    -5.3247158e-05  64000          40             0.0003125    
     34400   0.84497529     0.58999185    -7.9910248e-05  64000          40             0.0003125    
     34500   0.73868041     0.59934308    -7.3417027e-05  64000          40             0.0003125    
     34600   1.3228284      0.6506431      6.4770315e-05  64000          40             0.0003125    
     34700   0.80523568     0.68244524    -4.0042708e-05  64000          40             0.0003125    
     34800   0.66938793     0.63716278    -0.00011464482  64000          40             0.0003125    
     34900   1.3002714      0.95578811     0.00012625263  64000          40             0.0003125    
     35000   1.0490593      1.0290053     -0.00014450865  64000          40             0.0003125    
     35100   1.0915823      1.0210816     -0.00012367325  64000          40             0.0003125    
     35200   0.93049927     0.80241204    -9.8807932e-05  64000          40             0.0003125    
     35300   1.0140879      0.74374795    -7.9295858e-05  64000          40             0.0003125    
     35400   1.3585096      0.63100171     0.0001155326   64000          40             0.0003125    
     35500   0.97746328     0.51171405     0.00020668007  64000          40             0.0003125    
     35600   1.510319       0.47958476     0.00011224069  64000          40             0.0003125    
     35700   1.113326       0.59853907     6.3823983e-06  64000          40             0.0003125    
     35800   1.083982       0.55170222     1.855537e-05   64000          40             0.0003125    
     35900   0.99620768     0.56456305    -2.3583375e-05  64000          40             0.0003125    
     36000   0.94519613     0.57110012    -1.9464922e-05  64000          40             0.0003125    
     36100   1.0564754      0.64757426    -8.117196e-05   64000          40             0.0003125    
     36200   0.90502439     0.70891274    -6.3498112e-05  64000          40             0.0003125    
     36300   1.0259028      0.58622388    -5.294926e-05   64000          40             0.0003125    
     36400   0.66982224     0.82108449    -4.709833e-05   64000          40             0.0003125    
     36500   1.0485038      0.81068076    -6.7946655e-05  64000          40             0.0003125    
     36600   0.78097127     0.66035797    -0.000150728    64000          40             0.0003125    
     36700   1.4314888      0.48769038     4.9406091e-05  64000          40             0.0003125    
     36800   0.90155781     0.64266919     5.9979281e-05  64000          40             0.0003125    
     36900   0.93355912     0.4959859      6.574641e-06   64000          40             0.0003125    
     37000   0.58238222     0.62116393    -0.00022722911  64000          40             0.0003125    
     37100   0.95287362     0.54040006    -0.00013473508  64000          40             0.0003125    
     37200   1.2249643      0.53562868     0.00023300661  64000          40             0.0003125    
     37300   0.83638669     0.61035075     0.00018974343  64000          40             0.0003125    
     37400   0.82114487     0.35217107    -5.6739619e-06  64000          40             0.0003125    
     37500   0.82325744     0.33228478    -8.275886e-05   64000          40             0.0003125    
     37600   1.1972466      0.42654655     0.00021284519  64000          40             0.0003125    
     37700   1.2225935      0.63465495     0.00015826032  64000          40             0.0003125    
     37800   1.2888354      0.58873364     1.9481086e-05  64000          40             0.0003125    
     37900   1.0032201      0.69693059    -4.5273428e-05  64000          40             0.0003125    
     38000   1.0654226      1.0545592     -0.00018706108  64000          40             0.0003125    
     38100   1.5321873      0.73285173     0.00011803004  64000          40             0.0003125    
     38200   1.2548663      0.53742844     1.9473099e-05  64000          40             0.0003125    
     38300   0.88146359     0.79470449    -0.0001528394   64000          40             0.0003125    
     38400   0.83896338     0.63599363    -3.8631812e-05  64000          40             0.0003125    
     38500   0.83575224     0.61760585     7.2296758e-05  64000          40             0.0003125    
     38600   1.0520787      0.41212598    -5.9460705e-06  64000          40             0.0003125    
     38700   1.3134893      0.65518599    -3.1973803e-06  64000          40             0.0003125    
     38800   1.3127395      0.88791949    -4.3037715e-06  64000          40             0.0003125    
     38900   1.1817958      1.0780339     -0.00013325567  64000          40             0.0003125    
     39000   0.90329931     0.77864496    -0.00016769891  64000          40             0.0003125    
     39100   1.4699889      0.6950504      0.00016191303  64000          40             0.0003125    
     39200   0.67861282     0.76909964    -0.00023109141  64000          40             0.0003125    
     39300   1.1306502      0.77449433    -3.0712999e-05  64000          40             0.0003125    
     39400   1.0269282      0.79822966     2.6136008e-05  64000          40             0.0003125    
     39500   0.91770144     0.71803059    -0.00011744593  64000          40             0.0003125    
     39600   0.80783108     0.8531077     -0.00021367431  64000          40             0.0003125    
     39700   1.3765846      0.61189298     6.2143959e-05  64000          40             0.0003125    
     39800   0.90126723     0.85301458    -0.00014159451  64000          40             0.0003125    
     39900   1.2971101      0.79524778    -5.3445367e-05  64000          40             0.0003125    
     40000   1.2605243      0.87763111    -2.9171312e-05  64000          40             0.0003125    
     40100   1.0341619      1.040315      -0.00017038696  64000          40             0.0003125    
     40200   0.98979652     0.53351551     0.00011152239  64000          40             0.0003125    
     40300   1.0686198      0.67642273    -4.7607717e-05  64000          40             0.0003125    
     40400   0.80955602     0.82499039    -0.00017171412  64000          40             0.0003125    
     40500   1.2204093      0.67796166     3.4589417e-05  64000          40             0.0003125    
     40600   1.1211832      0.64645796    -2.0975307e-05  64000          40             0.0003125    
     40700   1.2144436      0.83708288    -3.3217758e-05  64000          40             0.0003125    
     40800   1.1414161      0.83581692    -6.3805671e-05  64000          40             0.0003125    
     40900   0.82816774     0.76455401     8.8520141e-05  64000          40             0.0003125    
     41000   0.97211605     0.64532833    -5.4498303e-05  64000          40             0.0003125    
     41100   1.2118081      0.56814261     0.00012608765  64000          40             0.0003125    
     41200   1.0926664      0.72094888    -5.7230528e-05  64000          40             0.0003125    
     41300   1.0115545      0.4179573      3.3928273e-06  64000          40             0.0003125    
     41400   1.0541842      0.51670173     0.00028033738  64000          40             0.0003125    
     41500   0.97094001     0.30861463     0.00018361027  64000          40             0.0003125    
     41600   0.91275623     0.66084654     0.00036032375  64000          40             0.0003125    
     41700   0.97179595     0.50220405     1.6409375e-05  64000          40             0.0003125    
     41800   0.79209513     0.48898934     5.1559577e-05  64000          40             0.0003125    
     41900   1.1812482      0.57738534     2.1339378e-05  64000          40             0.0003125    
     42000   0.87072471     0.57954269    -1.6423651e-05  64000          40             0.0003125    
     42100   1.0227729      0.78708321    -8.3265186e-05  64000          40             0.0003125    
     42200   1.013078       1.115963      -0.0002013038   64000          40             0.0003125    
     42300   1.0172304      1.1195073     -0.0001953908   64000          40             0.0003125    
     42400   1.1302407      0.87163224    -0.00011063505  64000          40             0.0003125    
     42500   0.86650562     0.86782838    -0.00014122358  64000          40             0.0003125    
     42600   1.2043183      0.86284563    -0.00010359416  64000          40             0.0003125    
     42700   0.91357312     0.7784651     -5.7394219e-05  64000          40             0.0003125    
     42800   1.0061288      0.57976766     3.2338705e-05  64000          40             0.0003125    
     42900   0.75184316     0.75065917    -0.00014297093  64000          40             0.0003125    
     43000   1.4427436      0.83559011     0.00012859885  64000          40             0.0003125    
     43100   1.26978        0.74681059     5.8302949e-05  64000          40             0.0003125    
     43200   0.61447849     0.7060592     -0.00015517945  64000          40             0.0003125    
     43300   1.0039766      0.82723124    -5.6193178e-05  64000          40             0.0003125    
     43400   0.86228237     0.93737901    -0.00013281783  64000          40             0.0003125    
     43500   0.67003193     0.95454264    -0.00018472041  64000          40             0.0003125    
     43600   1.0993797      0.95463211    -6.2768693e-05  64000          40             0.0003125    
     43700   0.68890133     0.91984917    -0.0001609117   64000          40             0.0003125    
     43800   0.88470069     0.62503301    -1.4301158e-05  64000          40             0.0003125    
     43900   0.95368407     0.67384456    -1.406627e-06   64000          40             0.0003125    
     44000   1.6223286      0.64839359     0.00019607733  64000          40             0.0003125    
     44100   1.5264545      0.84886726     0.00012050675  64000          40             0.0003125    
     44200   0.65031512     0.9186704     -0.00014405121  64000          40             0.0003125    
     44300   1.3054539      0.78803155     6.8222925e-05  64000          40             0.0003125    
     44400   1.1615036      0.57214508     8.4360982e-05  64000          40             0.0003125    
     44500   1.1549048      0.6654055      4.8477246e-05  64000          40             0.0003125    
     44600   1.5317504      0.77163741     0.00013407358  64000          40             0.0003125    
     44700   0.99514977     0.72640647     1.515196e-06   64000          40             0.0003125    
     44800   1.1032639      0.57450082     6.943769e-05   64000          40             0.0003125    
     44900   0.89273604     0.72744177    -3.197373e-05   64000          40             0.0003125    
     45000   1.0714106      0.85069085     2.2078737e-05  64000          40             0.0003125    
     45100   1.2814119      0.78951873     7.5927589e-05  64000          40             0.0003125    
     45200   0.78658872     0.74132373    -4.6057165e-05  64000          40             0.0003125    
     45300   0.89401341     0.8958667     -5.6456513e-05  64000          40             0.0003125    
     45400   1.2268623      0.86919465     5.482392e-06   64000          40             0.0003125    
     45500   1.2750179      0.96445943    -2.4604768e-05  64000          40             0.0003125    
     45600   1.2192034      1.0273865     -5.8531513e-05  64000          40             0.0003125    
     45700   1.0156769      1.2593536     -0.00015256575  64000          40             0.0003125    
     45800   1.1647617      0.90775432    -1.8174805e-05  64000          40             0.0003125    
     45900   0.86897552     1.2551213     -0.00019954638  64000          40             0.0003125    
     46000   1.1098966      1.1528166     -0.00011579143  64000          40             0.0003125    
     46100   0.92719806     1.2346173     -0.00016526172  64000          40             0.0003125    
     46200   1.2880769      1.2633098     -6.8544212e-05  64000          40             0.0003125    
     46300   1.1907013      1.048901      -3.5021829e-05  64000          40             0.0003125    
     46400   0.85260239     1.1855769     -0.00018523569  64000          40             0.0003125    
     46500   1.2584247      1.2728008     -6.9003776e-05  64000          40             0.0003125    
     46600   1.1741299      0.93127608    -5.3485562e-06  64000          40             0.0003125    
     46700   1.2267642      0.71086044     8.2509642e-05  64000          40             0.0003125    
     46800   0.99925572     0.70905982     2.6691453e-05  64000          40             0.0003125    
     46900   0.80994935     0.86093225    -6.5664706e-05  64000          40             0.0003125    
     47000   1.0726437      0.81361639     1.738528e-05   64000          40             0.0003125    
     47100   0.95472443     0.83437413    -4.5166737e-05  64000          40             0.0003125    
     47200   1.1737863      0.72002496     4.5755414e-05  64000          40             0.0003125    
     47300   1.3267527      0.8883548      4.5307777e-05  64000          40             0.0003125    
     47400   1.1547606      1.0159321     -4.4440939e-05  64000          40             0.0003125    
     47500   1.1571244      1.1540907     -6.4330564e-05  64000          40             0.0003125    
     47600   1.1299685      0.80445454     3.5317626e-05  64000          40             0.0003125    
     47700   1.2405446      0.55203464     0.00015459448  64000          40             0.0003125    
     47800   0.98778532     0.52170172     9.4431975e-05  64000          40             0.0003125    
     47900   0.89799685     0.58546497     4.1205247e-05  64000          40             0.0003125    
     48000   1.0368021      0.72763743     2.5598584e-05  64000          40             0.0003125    
     48100   1.0825231      0.98214094    -4.9371227e-05  64000          40             0.0003125    
     48200   1.2249212      1.0760665     -4.1760434e-05  64000          40             0.0003125    
     48300   1.1405776      1.1967298     -9.0555957e-05  64000          40             0.0003125    
     48400   1.0798247      1.1778423     -9.9836833e-05  64000          40             0.0003125    
     48500   1.0556256      1.0826718     -6.2307451e-05  64000          40             0.0003125    
     48600   0.89609538     0.97639967    -8.1428674e-05  64000          40             0.0003125    
     48700   0.93045659     0.92020863    -6.4096757e-05  64000          40             0.0003125    
     48800   1.018635       0.80686315    -1.1612678e-05  64000          40             0.0003125    
     48900   0.96814431     0.93579588    -7.7834797e-05  64000          40             0.0003125    
     49000   0.87272977     1.0315018     -0.00014122419  64000          40             0.0003125    
     49100   1.0240284      1.134056      -0.00012191206  64000          40             0.0003125    
     49200   1.1944978      1.1351882     -7.5188551e-05  64000          40             0.0003125    
     49300   1.0884118      1.0642334     -8.3528003e-05  64000          40             0.0003125    
     49400   0.71713159     1.2545045     -0.00024791241  64000          40             0.0003125    
     49500   0.95596954     1.1991217     -0.00016132997  64000          40             0.0003125    
     49600   1.1040989      0.98238625    -6.4397371e-05  64000          40             0.0003125    
     49700   1.2957451      1.0565616     -2.6138103e-05  64000          40             0.0003125    
     49800   0.8676428      0.77208526    -5.4672504e-05  64000          40             0.0003125    
     49900   1.3571873      0.76462484     9.8429814e-05  64000          40             0.0003125    
     50000   1.0395503      0.83495862    -3.6017246e-05  64000          40             0.0003125    
     50100   1.3526923      0.82019908     8.0494218e-05  64000          40             0.0003125    
     50200   1.2294908      0.70151339     7.8850819e-05  64000          40             0.0003125    
     50300   1.2267735      0.7541151      7.2767519e-05  64000          40             0.0003125    
     50400   0.8770537      0.73893456    -2.9258386e-05  64000          40             0.0003125    
     50500   1.2226778      1.1147641     -4.1345445e-05  64000          40             0.0003125    
     50600   0.91612084     0.86620854    -7.0692057e-05  64000          40             0.0003125    
     50700   1.0831802      0.74813237    -6.1877236e-06  64000          40             0.0003125    
     50800   1.0727351      0.59379428     4.7744931e-05  64000          40             0.0003125    
     50900   0.93428386     0.73522199    -2.8366944e-05  64000          40             0.0003125    
     51000   0.93709661     0.96773219     0.00027548037  64000          40             0.0003125    
     51100   0.88722573     0.85067376    -9.5145216e-05  64000          40             0.0003125    
     51200   1.2057015      1.1049936     -5.4314055e-05  64000          40             0.0003125    
     51300   0.8531506      1.0573343     -0.00014197476  64000          40             0.0003125    
     51400   1.009563       1.0928513     -0.00010606839  64000          40             0.0003125    
     51500   0.95315213     0.96666405    -0.00011986678  64000          40             0.0003125    
     51600   1.3804377      1.0084292      1.7097052e-05  64000          40             0.0003125    
     51700   1.2452528      0.71615288     4.2189497e-05  64000          40             0.0003125    
     51800   0.91747895     0.74930313    -6.2569325e-05  64000          40             0.0003125    
     51900   1.0185238      0.77345015    -3.7222809e-05  64000          40             0.0003125    
     52000   1.754702       0.84768605     0.0001456552   64000          40             0.0003125    
     52100   1.1627654      0.90047218    -7.2951605e-05  64000          40             0.0003125    
     52200   1.0129441      0.96903856    -0.0001141659   64000          40             0.0003125    
     52300   0.87156896     0.7621085     -0.00012323596  64000          40             0.0003125    
     52400   0.69278555     0.81581039    -0.00012527304  64000          40             0.0003125    
     52500   1.0294079      0.69882189     1.4251937e-05  64000          40             0.0003125    
     52600   1.3336685      0.89138783     7.8653073e-06  64000          40             0.0003125    
     52700   1.1608661      1.2490048      0.00011201546  64000          40             0.0003125    
     52800   1.0761098      1.1174175     -0.00016121453  64000          40             0.0003125    
     52900   0.90140172     1.1283256     -0.00016498709  64000          40             0.0003125    
     53000   1.0829133      1.0313056     -7.507048e-05   64000          40             0.0003125    
     53100   1.0593902      1.166394      -0.00015808609  64000          40             0.0003125    
     53200   0.77598389     1.2133759     -0.0002544567   64000          40             0.0003125    
     53300   1.1045386      0.8969039      3.0428826e-06  64000          40             0.0003125    
     53400   1.3728452      0.69688399     0.00011063369  64000          40             0.0003125    
     53500   0.89616656     0.76111549    -4.9865717e-05  64000          40             0.0003125    
     53600   0.98139449     0.84010031    -3.6877453e-05  64000          40             0.0003125    
     53700   0.99058158     0.75276982    -1.0302816e-05  64000          40             0.0003125    
     53800   0.91349301     0.78791544    -6.9372538e-05  64000          40             0.0003125    
     53900   1.5678986      0.6854439      0.00017171537  64000          40             0.0003125    
     54000   1.3299363      0.48556415     0.00018549946  64000          40             0.0003125    
     54100   1.3547061      0.5865128      0.00016349317  64000          40             0.0003125    
     54200   0.97605507     0.61507157     3.5219373e-05  64000          40             0.0003125    
     54300   1.0980527      0.65160352     5.5361024e-05  64000          40             0.0003125    
     54400   0.86587515     0.70461768    -2.1904548e-05  64000          40             0.0003125    
     54500   0.94454992     0.88939449    -4.9921787e-05  64000          40             0.0003125    
     54600   0.80438606     0.96320639    -0.00010741229  64000          40             0.0003125    
     54700   0.9324203      0.86646566    -3.5108723e-05  64000          40             0.0003125    
     54800   1.0570515      0.6917022      2.2879036e-05  64000          40             0.0003125    
     54900   0.9141202      0.92191517    -8.4228238e-05  64000          40             0.0003125    
     55000   1.2621738      0.95328422     2.1587734e-06  64000          40             0.0003125    
     55100   1.0947309      1.0626372     -8.4370354e-05  64000          40             0.0003125    
     55200   1.0631645      0.62867915     3.496609e-05   64000          40             0.0003125    
     55300   1.0132758      0.64724782     2.302999e-05   64000          40             0.0003125    
     55400   1.1671862      0.42398351     0.00014371399  64000          40             0.0003125    
     55500   0.74395288     0.36029481     3.9758212e-05  64000          40             0.0003125    
     55600   0.90977972     0.38257451     8.7677097e-05  64000          40             0.0003125    
     55700   0.84614357     0.53931736     2.8197548e-05  64000          40             0.0003125    
     55800   0.99857865     0.63265448     2.2765017e-05  64000          40             0.0003125    
     55900   1.0834331      0.70726183    -2.0250936e-05  64000          40             0.0003125    
     56000   1.3031171      0.59176641     6.3355893e-05  64000          40             0.0003125    
     56100   1.0348248      0.56013141    -7.5531029e-06  64000          40             0.0003125    
     56200   0.70609625     0.46261802    -3.6079242e-05  64000          40             0.0003125    
     56300   1.0280695      0.58878887     2.6890076e-05  64000          40             0.0003125    
     56400   1.072578       0.57358093     4.7165767e-05  64000          40             0.0003125    
     56500   0.97768579     0.64535997     3.2196933e-05  64000          40             0.0003125    
     56600   0.82296108     0.79515016    -0.00010364542  64000          40             0.0003125    
     56700   0.93720484     0.68712601    -2.3432495e-05  64000          40             0.0003125    
     56800   1.298356       0.68086545     7.7220158e-05  64000          40             0.0003125    
     56900   0.94564469     0.54694397     3.5175169e-05  64000          40             0.0003125    
     57000   0.78678614     0.49902411     4.8692383e-05  64000          40             0.0003125    
     57100   0.99969399     0.40694707     8.4516758e-05  64000          40             0.0003125    
     57200   1.2084347      0.51226724     0.00013399906  64000          40             0.0003125    
     57300   1.0062855      0.73795612     2.4199347e-05  64000          40             0.0003125    
     57400   1.2999302      0.66823439     0.00012402362  64000          40             0.0003125    
     57500   0.78599445     0.51463378     8.1300045e-06  64000          40             0.0003125    
     57600   0.93158663     0.64119091    -8.5413486e-07  64000          40             0.0003125    
     57700   0.78932509     0.54215945    -1.6822674e-05  64000          40             0.0003125    
     57800   1.2154307      0.67709664     8.178661e-05   64000          40             0.0003125    
     57900   0.95558668     0.87495265    -6.1319377e-05  64000          40             0.0003125    
     58000   0.99883393     0.88426304    -6.1726308e-05  64000          40             0.0003125    
     58100   1.0668897      0.72295949     7.1781826e-06  64000          40             0.0003125    
     58200   0.9738791      0.99905447    -9.0607119e-05  64000          40             0.0003125    
     58300   1.1358954      1.112241      -7.6330829e-05  64000          40             0.0003125    
     58400   1.0500486      0.85511699    -5.8007968e-05  64000          40             0.0003125    
     58500   1.0410124      0.836771      -5.8828066e-05  64000          40             0.0003125    
     58600   0.96649306     1.0015528     -0.00012997835  64000          40             0.0003125    
     58700   0.93373022     0.55907828    -9.0591317e-07  64000          40             0.0003125    
     58800   1.0005265      0.49742908     1.4760065e-05  64000          40             0.0003125    
     58900   1.01707        0.54135213     6.0316898e-05  64000          40             0.0003125    
     59000   0.87523334     0.64360741    -3.7276423e-05  64000          40             0.0003125    
     59100   0.82379329     0.6514492     -7.7031924e-05  64000          40             0.0003125    
     59200   0.80985943     0.5439443     -4.8021778e-05  64000          40             0.0003125    
     59300   1.1361941      0.79232915    -1.6669214e-05  64000          40             0.0003125    
     59400   0.91491256     0.88590174    -0.00011326339  64000          40             0.0003125    
     59500   0.82567841     1.0912444     -0.00020754242  64000          40             0.0003125    
     59600   0.93645312     1.1846325      1.7104408e-05  64000          40             0.0003125    
     59700   0.97614803     1.0721446     -0.00013746554  64000          40             0.0003125    
     59800   0.89955947     0.89976521    -0.00011411552  64000          40             0.0003125    
     59900   1.4400755      1.1120093      2.4341365e-06  64000          40             0.0003125    
     60000   1.1075603      1.3118421     -0.00013717327  64000          40             0.0003125    
     60100   0.92539217     1.2166624     -0.00015617832  64000          40             0.0003125    
     60200   1.186989       1.0139005     -5.8934606e-05  64000          40             0.0003125    
     60300   0.9514757      0.78231066    -8.1394577e-05  64000          40             0.0003125    
     60400   0.97359409     0.88298802    -9.7199912e-05  64000          40             0.0003125    
     60500   1.0926589      1.1095267     -0.00013640282  64000          40             0.0003125    
     60600   1.5016882      0.94820046     7.1287747e-05  64000          40             0.0003125    
     60700   0.91762377     0.84688173    -7.837019e-05   64000          40             0.0003125    
     60800   1.2082265      0.98384068    -5.8989229e-05  64000          40             0.0003125    
     60900   0.81381614     0.89463683    -0.00017914365  64000          40             0.0003125    
     61000   1.3864126      0.64790785     6.490705e-05   64000          40             0.0003125    
     61100   1.2245874      0.66073122     0.00016160671  64000          40             0.0003125    
     61200   0.80589252     0.65074974    -0.00011191455  64000          40             0.0003125    
     61300   1.226346       0.90434949    -4.0902867e-05  64000          40             0.0003125    
     61400   0.79536258     0.67385938    -0.00010362176  64000          40             0.0003125    
     61500   1.1663238      0.53503905     6.116215e-05   64000          40             0.0003125    
     61600   0.95761274     0.60167594    -2.3388304e-06  64000          40             0.0003125    
     61700   0.66553705     0.89570883    -0.00020274375  64000          40             0.0003125    
     61800   1.2567362      0.76371054     2.0095636e-05  64000          40             0.0003125    
     61900   1.1529135      0.74871723    -2.8641835e-05  64000          40             0.0003125    
     62000   0.89657837     1.0171937     -2.0212474e-05  64000          40             0.0003125    
     62100   0.9799471      0.88842334     6.6381777e-06  64000          40             0.0003125    
     62200   1.4055174      0.64773723     0.00021725336  64000          40             0.0003125    
     62300   0.82694577     0.49916823    -4.3067293e-05  64000          40             0.0003125    
     62400   0.88430795     0.3583515      1.9293046e-05  64000          40             0.0003125    
     62500   0.56176003     0.49991524    -0.00011412178  64000          40             0.0003125    
     62600   0.98514631     0.72650605    -9.2303845e-05  64000          40             0.0003125    
     62700   0.82862429     0.62748403    -7.0135351e-05  64000          40             0.0003125    
     62800   0.86638336     0.59462268    -8.5417681e-05  64000          40             0.0003125    
     62900   0.93899824     0.60340774    -8.0590755e-05  64000          40             0.0003125    
     63000   1.3315453      0.69223126     2.2385025e-05  64000          40             0.0003125    
     63100   0.9092013      0.76646115    -0.00011114905  64000          40             0.0003125    
     63200   1.2085942      0.60889714    -1.4283837e-05  64000          40             0.0003125    
     63300   1.2573438      0.56172841     4.4538982e-05  64000          40             0.0003125    
     63400   0.97880175     0.56124145    -3.918918e-05   64000          40             0.0003125    
     63500   0.87136023     0.33712626     0.00012290562  64000          40             0.0003125    
     63600   0.90674481     0.5270741     -4.4453525e-05  64000          40             0.0003125    
     63700   0.88010423     0.5551009     -7.4772424e-05  64000          40             0.0003125    
     63800   0.77169608     0.67864931    -0.00010707707  64000          40             0.0003125    
     63900   1.1158664      0.60044955     7.787848e-08   64000          40             0.0003125    
     64000   1.2100591      0.83289307     3.917642e-05   64000          40             0.0003125    
     64100   1.0876936      0.97466164    -0.00010974206  64000          40             0.0003125    
     64200   1.0657963      0.9260735      2.1030852e-05  64000          40             0.0003125    
     64300   1.0004542      1.0072396     -0.00012925043  64000          40             0.0003125    
     64400   0.99266256     0.86779015    -7.9533963e-05  64000          40             0.0003125    
     64500   1.0827813      0.90251768    -4.4583239e-05  64000          40             0.0003125    
     64600   1.0927202      0.84768009    -2.8348485e-06  64000          40             0.0003125    
     64700   1.048359       0.82902498     1.2079052e-05  64000          40             0.0003125    
     64800   1.0598726      0.83856187    -9.9582233e-06  64000          40             0.0003125    
     64900   0.87520026     1.0350246     -0.00010545644  64000          40             0.0003125    
     65000   1.4783474      0.90975217     8.7514415e-05  64000          40             0.0003125    
     65100   0.96321332     0.69406829    -0.00011952945  64000          40             0.0003125    
     65200   1.253988       0.478632       0.0002815286   64000          40             0.0003125    
     65300   1.1148928      0.51820197     5.8892528e-06  64000          40             0.0003125    
     65400   1.1635246      0.3233426      8.698543e-05   64000          40             0.0003125    
     65500   1.1723973      0.37370776     0.00011588018  64000          40             0.0003125    
     65600   0.92641624     0.46859756     1.4512914e-05  64000          40             0.0003125    
     65700   1.4939575      0.493107       0.00016203813  64000          40             0.0003125    
     65800   1.153501       0.51536999     8.3932828e-05  64000          40             0.0003125    
     65900   1.0745147      0.38639033     6.9033034e-05  64000          40             0.0003125    
     66000   1.1826645      0.48894904     8.0353652e-05  64000          40             0.0003125    
     66100   1.3551872      0.69078122     0.00010455718  64000          40             0.0003125    
     66200   0.98551063     0.54844202     3.2143557e-05  64000          40             0.0003125    
     66300   1.0237217      0.53766043     3.526701e-05   64000          40             0.0003125    
     66400   1.1967568      0.53908683     0.00011402811  64000          40             0.0003125    
     66500   1.114116       0.70678892     4.3693892e-05  64000          40             0.0003125    
     66600   0.74762003     0.90287847    -0.00012856089  64000          40             0.0003125    
     66700   1.4021516      1.1410202     -2.1694718e-05  64000          40             0.0003125    
     66800   0.88188134     0.80033608    -3.7653577e-05  64000          40             0.0003125    
     66900   1.0182248      1.0129175     -0.00014325777  64000          40             0.0003125    
     67000   0.98092193     0.94175134     4.2589124e-05  64000          40             0.0003125    
     67100   1.0975357      1.1766134     -0.0001917339   64000          40             0.0003125    
     67200   1.2910267      1.0057972     -0.00012054639  64000          40             0.0003125    
     67300   1.0144578      0.82300847    -0.00010207511  64000          40             0.0003125    
     67400   1.0774017      0.74177709     7.6596701e-05  64000          40             0.0003125    
     67500   0.7923072      0.4010604      0.00011163401  64000          40             0.0003125    
     67600   1.3867477      0.34028696     6.5912396e-05  64000          40             0.0003125    
     67700   1.050539       0.34859765     0.00038550928  64000          40             0.0003125    
     67800   1.1446727      0.48873        0.00010978204  64000          40             0.0003125    
     67900   0.74170774     0.74413641    -0.00010135596  64000          40             0.0003125    
     68000   1.193908       0.6398194     -3.5570545e-05  64000          40             0.0003125    
     68100   0.90409964     0.34910393    -6.3872587e-05  64000          40             0.0003125    
     68200   1.1046502      0.28805968     0.00010603533  64000          40             0.0003125    
     68300   1.0357389      0.25564772    -1.5937435e-05  64000          40             0.0003125    
     68400   0.96869115     0.14872329     3.8092592e-05  64000          40             0.0003125    
     68500   1.145392       0.17474502     4.3308048e-05  64000          40             0.0003125    
     68600   0.81480554     0.059697206    1.0037172e-05  64000          40             0.0003125    
     68700   1.0080522      0.22227663    -1.0936525e-05  64000          40             0.0003125    
     68800   0.99321868     0.33886898    -7.672357e-05   64000          40             0.0003125    
     68900   1.0563981      0.32945271    -7.0025426e-05  64000          40             0.0003125    
     69000   1.1568955      0.36114818     8.7568722e-05  64000          40             0.0003125    
     69100   1.3482935      0.5068463      0.00011733193  64000          40             0.0003125    
     69200   0.96206904     0.46363561     0.00014163761  64000          40             0.0003125    
     69300   1.3040872      0.39812754     6.9130153e-05  64000          40             0.0003125    
     69400   1.1290119      0.50552412     0.00019021699  64000          40             0.0003125    
     69500   1.0391111      0.70714163    -3.588595e-05   64000          40             0.0003125    
     69600   0.67432105     0.50901282    -8.7036046e-05  64000          40             0.0003125    
     69700   1.0039286      0.51303633    -1.3131553e-05  64000          40             0.0003125    
     69800   0.9412449      0.51431702     8.0845576e-05  64000          40             0.0003125    
     69900   0.9498261      0.7115801     -0.00017655243  64000          40             0.0003125    
     70000   1.3886214      0.80906054    -3.816126e-05   64000          40             0.0003125    
     70100   0.95610888     0.85090497    -3.9350705e-05  64000          40             0.0003125    
     70200   0.82215299     0.68774356    -5.6164312e-05  64000          40             0.0003125    
     70300   1.1769761      0.96007213    -7.6050209e-05  64000          40             0.0003125    
     70400   0.94816969     0.5892693     -9.472423e-05   64000          40             0.0003125    
     70500   1.0202932      0.69122684     0.00013306508  64000          40             0.0003125    
     70600   1.3683982      0.74377622    -4.0833671e-05  64000          40             0.0003125    
     70700   1.233036       0.73578238    -3.648522e-05   64000          40             0.0003125    
     70800   1.3596887      0.78917536    -0.00010809049  64000          40             0.0003125    
     70900   1.5317419      0.86957871     0.00026293099  64000          40             0.0003125    
     71000   1.2486293      0.63379019     0.00012240584  64000          40             0.0003125    
     71100   1.1671145      0.55030395     2.2393388e-05  64000          40             0.0003125    
     71200   1.1791822      0.60838771     0.00024503461  64000          40             0.0003125    
     71300   1.2047553      0.47741851    -2.1628032e-05  64000          40             0.0003125    
     71400   1.2968193      0.61737423     2.5193531e-05  64000          40             0.0003125    
     71500   0.91368192     0.82195846    -0.00024856295  64000          40             0.0003125    
     71600   1.055495       0.43091667    -2.58728e-05    64000          40             0.0003125    
     71700   0.89317083     0.7802066      0.00014131067  64000          40             0.0003125    
     71800   1.0949021      0.76786158    -0.00017627584  64000          40             0.0003125    
     71900   1.1814971      0.82759313    -9.6467149e-05  64000          40             0.0003125    
     72000   1.2563749      1.0173697     -0.00014688528  64000          40             0.0003125    
     72100   1.1029028      0.6705566     -0.00010210268  64000          40             0.0003125    
     72200   1.328916       0.63818389     0.00020081082  64000          40             0.0003125    
     72300   0.95535602     0.60260546    -0.00016948561  64000          40             0.0003125    
     72400   1.3654924      0.40409334     7.5310308e-06  64000          40             0.0003125    
     72500   0.82022375     0.44429328    -9.1475877e-05  64000          40             0.0003125    
     72600   1.1571826      0.36464255    -8.7592325e-05  64000          40             0.0003125    
     72700   1.1851433      0.18228565     0.00010331554  64000          40             0.0003125    
     72800   0.91938756     0.28985841    -7.235197e-05   64000          40             0.0003125    
     72900   0.74890881     0.18980207    -0.00013352045  64000          40             0.0003125    
     73000   0.98341242     0.1717733      1.7638041e-05  64000          40             0.0003125    
     73100   0.69901678     0.11901939    -4.7134035e-05  64000          40             0.0003125    
     73200   0.86467547     0.10533572     0.00026918556  64000          40             0.0003125    
     73300   0.85070837     0.19970931    -0.00014573377  64000          40             0.0003125    
     73400   0.89796327     0.14887491     2.5740155e-05  64000          40             0.0003125    
     73500   1.2790973      0.40303172     0.00025147373  64000          40             0.0003125    
     73600   0.99180388     0.40185104     0.00011074165  64000          40             0.0003125    
     73700   1.2256909      0.38966538    -6.1791941e-05  64000          40             0.0003125    
     73800   0.95157791     0.35103076    -9.3929805e-05  64000          40             0.0003125    
     73900   0.9052388      0.31814532    -0.00014181408  64000          40             0.0003125    
     74000   1.1943709      0.42208397    -8.7201485e-05  64000          40             0.0003125    
     74100   1.0047411      0.45112788    -0.00015690696  64000          40             0.0003125    
     74200   0.88956085     0.76197539    -7.3481129e-05  64000          40             0.0003125    
     74300   1.0446043      0.54346127    -0.00010052312  64000          40             0.0003125    
     74400   1.1755633      0.42036503     0.00010524479  64000          40             0.0003125    
[...]
     81900   0.91524677    -0.55598934    -0.00014773392  64000          40             0.0003125    
     82000   0.97648241    -0.42231819     0.00038893499  64000          40             0.0003125    
     82100   0.89692456    -0.41998055    -6.536586e-05   64000          40             0.0003125    
     82200   1.224714      -0.20996553    -6.1691709e-05  64000          40             0.0003125    
     82300   1.0503162     -0.32497838     0.00016829316  64000          40             0.0003125    
     82400   1.1588524     -0.10294884     0.00015184968  64000          40             0.0003125    
     82500   0.93142087    -0.085867342   -0.00012252754  64000          40             0.0003125    
     82600   1.0070692     -0.26532437    -2.8297096e-05  64000          40             0.0003125    
     82700   0.98853424     0.012020377   -0.00032428514  64000          40             0.0003125    
     82800   0.9450965     -0.13628164    -0.00030634536  64000          40             0.0003125    
     82900   0.99303062     0.05500519    -0.00014710955  64000          40             0.0003125    
     83000   0.78118445     0.034687974    0.00018063923  64000          40             0.0003125    
     83100   1.1784887      0.14747813    -2.039797e-05   64000          40             0.0003125    
     83200   0.9003143     -0.014951082   -0.00018694687  64000          40             0.0003125    
     83300   1.0017227     -0.071571215    0.00029752284  64000          40             0.0003125    
     83400   1.1132313     -0.2403869     -4.4322444e-05  64000          40             0.0003125    
     83500   1.0389212     -0.17171777    -6.3303082e-07  64000          40             0.0003125    
     83600   1.03423       -0.28683454     3.0796971e-05  64000          40             0.0003125    
     83700   1.4226675     -0.54280506     0.00013717091  64000          40             0.0003125    
     83800   1.0013292     -0.34112679     0.0001408741   64000          40             0.0003125    
     83900   1.1738394     -0.18318665    -6.9838446e-05  64000          40             0.0003125    
     84000   1.1580886      0.11985822    -9.5810613e-05  64000          40             0.0003125    
     84100   1.0796055      0.22257466    -0.00013325985  64000          40             0.0003125    
     84200   0.97714647    -0.013653813   -0.00022473942  64000          40             0.0003125    
     84300   0.94119385     0.055715612   -9.044234e-05   64000          40             0.0003125    
     84400   0.96840361    -0.10304065     0.00014551147  64000          40             0.0003125    
     84500   1.1379169     -0.11789266    -5.569673e-05   64000          40             0.0003125    
     84600   1.1296933     -0.30676027     0.00020967576  64000          40             0.0003125    
     84700   1.0895084     -0.36526623    -8.1409723e-05  64000          40             0.0003125    
     84800   1.2612566     -0.16994525    -5.1012845e-05  64000          40             0.0003125    
     84900   1.4011673     -0.41406968     0.0004400274   64000          40             0.0003125    
     85000   1.0314594     -0.061768248   -6.6081772e-05  64000          40             0.0003125    
     85100   0.96204448    -0.4032493     -8.8999305e-05  64000          40             0.0003125    
     85200   0.83094688    -0.33743778     0.00030341783  64000          40             0.0003125    
     85300   1.1961995     -0.14229464     5.2218495e-05  64000          40             0.0003125    
     85400   1.0607565     -0.051415423    0.00026982136  64000          40             0.0003125    
     85500   1.2196509      0.32789139    -5.47274e-05    64000          40             0.0003125    
     85600   0.96098969     0.60767302    -0.00010102537  64000          40             0.0003125    
     85700   1.0887815      0.43620288    -0.00012887989  64000          40             0.0003125    
     85800   0.84813077     0.29999573    -0.00010634801  64000          40             0.0003125    
     85900   1.1237077      0.1748182     -3.4600706e-06  64000          40             0.0003125    
     86000   1.0192607      0.18403703    -4.5605981e-05  64000          40             0.0003125    
     86100   0.99428934    -0.1800243     -0.00015453207  64000          40             0.0003125    
     86200   1.2230208     -0.11916665    -0.00011851059  64000          40             0.0003125    
     86300   0.91742345    -0.036111153   -0.00011547962  64000          40             0.0003125    
     86400   1.167197      -0.044011271   -2.1688882e-05  64000          40             0.0003125    
     86500   1.0445304     -0.045740979    0.00027380935  64000          40             0.0003125    
     86600   0.89118078    -0.62536655    -0.00024622716  64000          40             0.0003125    
     86700   0.86314968    -0.70436054    -3.9474293e-05  64000          40             0.0003125    
     86800   1.0175704     -0.56271243    -0.00019048552  64000          40             0.0003125    
     86900   1.2859664     -0.26268409     8.6078141e-06  64000          40             0.0003125    
     87000   0.94892528    -0.50705072    -4.0748871e-05  64000          40             0.0003125    
     87100   0.92629334    -0.30835104    -0.0002703227   64000          40             0.0003125    
     87200   1.0405029     -0.53352712    -8.7686963e-05  64000          40             0.0003125    
     87300   1.0821158     -0.44157531    -6.3774528e-05  64000          40             0.0003125    
     87400   1.0542526     -0.607697      -1.6102705e-05  64000          40             0.0003125    
     87500   0.76448509    -0.53854066    -0.00020050531  64000          40             0.0003125    
     87600   0.70693002    -0.33874369    -0.00027350533  64000          40             0.0003125    
     87700   1.1520042     -0.22068333     0.00046742389  64000          40             0.0003125    
     87800   0.88884904    -0.10481629    -0.00010573301  64000          40             0.0003125    
     87900   1.2635474     -0.014883999    3.6927615e-05  64000          40             0.0003125    
     88000   0.96416002    -0.13708868    -0.00013455825  64000          40             0.0003125    
     88100   0.90975597    -0.32694527     0.00013121864  64000          40             0.0003125    
     88200   0.8849726     -0.28136775     0.00010900339  64000          40             0.0003125    
     88300   0.97157662    -0.46107352     0.00022403493  64000          40             0.0003125    
     88400   0.96859238    -0.062299688   -0.00019118055  64000          40             0.0003125    
     88500   0.78050152    -0.21475956    -1.7019917e-05  64000          40             0.0003125    
     88600   0.97821375    -0.24015476     5.2111088e-05  64000          40             0.0003125    
     88700   1.2573218     -0.28045085    -0.00015556287  64000          40             0.0003125    
     88800   0.91436493     0.03025219    -0.00018074477  64000          40             0.0003125    
     88900   1.1673826     -0.09924858     0.00040146889  64000          40             0.0003125    
     89000   0.56279204    -0.13631903     1.0579747e-05  64000          40             0.0003125    
     89100   0.93910583    -0.25116714    -0.00013215686  64000          40             0.0003125    
     89200   1.01224       -0.08902831    -0.00022567407  64000          40             0.0003125    
     89300   1.0193763     -0.24192354     4.1881042e-05  64000          40             0.0003125    
     89400   1.3114298     -0.16097001    -5.1412677e-05  64000          40             0.0003125    
     89500   0.79396784    -0.084641695    5.9064414e-05  64000          40             0.0003125    
     89600   1.2553598     -0.12046742     0.00011513503  64000          40             0.0003125    
     89700   0.94547616    -0.19362823     7.5990139e-05  64000          40             0.0003125    
     89800   0.74116375    -0.44632308     7.8737796e-05  64000          40             0.0003125    
     89900   1.0310529     -0.67418246     0.00014414896  64000          40             0.0003125    
     90000   1.2848436     -0.46257031    -0.00019395973  64000          40             0.0003125    
     90100   0.85132635    -0.01578841    -0.00026554132  64000          40             0.0003125    
     90200   0.62764317     0.039375608   -0.00032910449  64000          40             0.0003125    
     90300   1.0516373     -0.29983794    -0.0002807987   64000          40             0.0003125    
     90400   0.92570671    -0.53139203     8.5382743e-05  64000          40             0.0003125    
     90500   1.1268121     -0.47355754     0.00011567533  64000          40             0.0003125    
     90600   1.1007657     -0.9691968      3.5504678e-05  64000          40             0.0003125    
     90700   0.81584826    -0.84056267    -5.6047801e-05  64000          40             0.0003125    
     90800   1.1177607     -0.68279888    -0.00032199721  64000          40             0.0003125    
     90900   1.2537788     -1.0274237     -8.0894647e-05  64000          40             0.0003125    
     91000   1.3996154     -0.67651908     0.00029006073  64000          40             0.0003125    
     91100   1.01601       -0.45980765     6.6492053e-05  64000          40             0.0003125    
     91200   0.69610012    -0.57020308    -0.00016451214  64000          40             0.0003125    
     91300   1.013086      -0.87727029    -7.6345365e-05  64000          40             0.0003125    
     91400   0.71391287    -0.64410887     0.00046322849  64000          40             0.0003125    
     91500   0.81969496    -0.80181017     0.00035562163  64000          40             0.0003125    
     91600   1.0908554     -0.71236491    -1.4919251e-05  64000          40             0.0003125    
     91700   0.712004      -0.21059396    -0.00043212788  64000          40             0.0003125    
     91800   1.2392409     -0.22761776     0.0002144209   64000          40             0.0003125    
     91900   1.0657124     -0.57562991    -0.00033311046  64000          40             0.0003125    
     92000   0.94842405    -0.4047583     -0.00020437422  64000          40             0.0003125    
     92100   1.187004      -0.13949613     0.00019354974  64000          40             0.0003125    
     92200   1.2549587     -0.62913218     3.5805833e-05  64000          40             0.0003125    
     92300   1.0877603     -0.69254544    -0.00015428914  64000          40             0.0003125    
     92400   1.3381602     -0.64746614     0.00044991242  64000          40             0.0003125    
     92500   1.275849      -0.18089379     0.00027024845  64000          40             0.0003125    
     92600   1.0154615     -0.27266819     0.00023894272  64000          40             0.0003125    
     92700   0.99755968    -0.33140181    -0.00029107362  64000          40             0.0003125    
     92800   1.0498401     -0.62933731     4.044893e-05   64000          40             0.0003125    
     92900   1.7382225     -0.56480173     0.00017648668  64000          40             0.0003125    
     93000   1.2649749     -0.59113176     0.00023241039  64000          40             0.0003125    
     93100   1.2103228     -0.38115925    -5.3061621e-05  64000          40             0.0003125    
     93200   0.97954568    -0.2553528      0.00012886332  64000          40             0.0003125    
     93300   0.78551918    -0.35122077    -0.00012271486  64000          40             0.0003125    
     93400   1.6700047     -0.35079565     3.6827778e-05  64000          40             0.0003125    
     93500   1.5911649     -0.29694662    -1.6281647e-06  64000          40             0.0003125    
     93600   1.1118442     -0.21999786     0.00024939068  64000          40             0.0003125    
     93700   0.89921496    -0.36817077    -9.1354905e-05  64000          40             0.0003125    
     93800   1.030217      -0.39317163     3.5909664e-05  64000          40             0.0003125    
     93900   0.90982883    -0.33021814    -0.00017501096  64000          40             0.0003125    
     94000   1.3667451     -0.83055427    -6.6259697e-05  64000          40             0.0003125    
     94100   0.88190503    -1.0884066      5.9910002e-05  64000          40             0.0003125    
     94200   1.0051997     -1.1984616     -7.430162e-05   64000          40             0.0003125    
     94300   1.0500532     -0.96202812     0.00054553063  64000          40             0.0003125    
     94400   1.1928721     -0.51894153     3.5351086e-05  64000          40             0.0003125    
     94500   0.9172411     -0.6550694     -0.00016838063  64000          40             0.0003125    
     94600   1.1668849     -0.47221785    -0.00023808563  64000          40             0.0003125    
     94700   1.4842888     -0.74405773     0.00024515123  64000          40             0.0003125    
     94800   1.0661653     -1.2267921      0.0001597141   64000          40             0.0003125    
     94900   0.9937799     -1.0111107     -0.00023429308  64000          40             0.0003125    
     95000   0.98398782    -0.95090187     9.0867049e-05  64000          40             0.0003125    
     95100   1.0762446     -1.1828805     -9.5558377e-05  64000          40             0.0003125    
     95200   0.86346739    -1.6228932     -0.00013746074  64000          40             0.0003125    
     95300   0.8756846     -1.3666832     -0.00019313674  64000          40             0.0003125    
     95400   0.94827955    -1.2468918     -0.00031220473  64000          40             0.0003125    
     95500   0.83981142    -1.9275103     -6.7265682e-05  64000          40             0.0003125    
     95600   1.3672634     -1.9634694      0.0001198916   64000          40             0.0003125    
     95700   0.87465874    -1.6917521      4.3972848e-05  64000          40             0.0003125    
     95800   1.087237      -1.1365489     -8.1104312e-05  64000          40             0.0003125    
     95900   0.89773227    -1.0521188      0.0002903322   64000          40             0.0003125    
     96000   0.97512848    -1.3037737     -0.00011018292  64000          40             0.0003125    
     96100   0.86155976    -1.5050244     -2.5826357e-05  64000          40             0.0003125    
     96200   0.72844774    -1.6288889     -6.8517198e-05  64000          40             0.0003125    
     96300   1.2783573     -1.7160002      3.1341613e-05  64000          40             0.0003125    
     96400   0.85763794    -1.0972575      6.7225775e-06  64000          40             0.0003125    
     96500   0.94628282    -0.89130671    -6.7718103e-06  64000          40             0.0003125    
     96600   1.0458811     -0.70972477     0.00018953152  64000          40             0.0003125    
     96700   0.8844268     -0.74418711    -0.00012237195  64000          40             0.0003125    
     96800   1.108259      -0.91569918    -6.9706181e-05  64000          40             0.0003125    
     96900   0.8741129     -0.7437934     -8.4908699e-05  64000          40             0.0003125    
     97000   1.2777318     -1.0671236      0.00043008353  64000          40             0.0003125    
     97100   1.200846      -1.0767542      0.0001435703   64000          40             0.0003125    
     97200   1.0405594     -1.2936561     -0.00016815746  64000          40             0.0003125    
     97300   1.0052627     -0.99801713     3.612945e-05   64000          40             0.0003125    
     97400   0.84082081    -1.3187883     -0.00019664393  64000          40             0.0003125    
     97500   1.250803      -1.356145       5.1978229e-05  64000          40             0.0003125    
     97600   1.2261695     -1.4482927     -0.00024118073  64000          40             0.0003125    
     97700   1.0745115     -1.1500248      0.00068672879  64000          40             0.0003125    
     97800   0.97527337    -1.2239477      0.00028418097  64000          40             0.0003125    
     97900   0.98302188    -1.1639582     -5.4153077e-05  64000          40             0.0003125    
     98000   1.2188399     -1.2935912     -0.00022680282  64000          40             0.0003125    
     98100   0.78948145    -1.108468      -0.00042855315  64000          40             0.0003125    
     98200   0.98791002    -1.4347719     -0.00011750646  64000          40             0.0003125    
     98300   1.0859337     -1.6361805      0.00035597927  64000          40             0.0003125    
     98400   0.82615442    -1.9578911     -7.3819336e-05  64000          40             0.0003125    
     98500   1.0716515     -2.2740454      0.00022573132  64000          40             0.0003125    
     98600   0.95153674    -1.5528941     -0.0004000921   64000          40             0.0003125    
     98700   1.1683058     -2.1218828      3.5708583e-06  64000          40             0.0003125    
     98800   1.0598182     -2.4500745      0.00025225159  64000          40             0.0003125    
     98900   0.84674845    -2.5456991      0.00015719832  64000          40             0.0003125    
     99000   0.84634415    -2.3709476      7.4198606e-05  64000          40             0.0003125    
     99100   1.2407712     -2.2271844      5.5977164e-05  64000          40             0.0003125    
     99200   0.94779605    -2.1275606     -0.0004245628   64000          40             0.0003125    
     99300   1.100031      -1.3957471      0.00010092277  64000          40             0.0003125    
     99400   0.99732004    -1.7851593      0.00011075941  64000          40             0.0003125    
     99500   0.68158423    -1.5008412      0.00074977308  64000          40             0.0003125    
     99600   0.93554057    -1.7444931     -0.00020079548  64000          40             0.0003125    
     99700   1.1304985     -1.4165811      0.00029360683  64000          40             0.0003125    
     99800   1.184254      -1.3396572      0.00031079113  64000          40             0.0003125    
     99900   1.1887516     -1.387308      -2.8017044e-05  64000          40             0.0003125    
    100000   0.87036018    -1.6676518     -8.8447666e-05  64000          40             0.0003125    
    100100   1.2423158     -1.510208      -1.2463942e-05  64000          40             0.0003125    
    100101   1.1847256     -1.5071503     -1.9296778e-05  64000          40             0.0003125    
Loop time of 0.549242 on 1 procs for 100000 steps with 20 atoms

Performance: 78653897.964 tau/day, 182069.208 timesteps/s
91.9% CPU use with 1 MPI tasks x 1 OpenMP threads

MPI task timing breakdown:
Section |  min time  |  avg time  |  max time  |%varavg| %total
---------------------------------------------------------------
Pair    | 0.025485   | 0.025485   | 0.025485   |   0.0 |  4.64
Bond    | 0.017666   | 0.017666   | 0.017666   |   0.0 |  3.22
Neigh   | 0.11769    | 0.11769    | 0.11769    |   0.0 | 21.43
Comm    | 0.013096   | 0.013096   | 0.013096   |   0.0 |  2.38
Output  | 0.25258    | 0.25258    | 0.25258    |   0.0 | 45.99
Modify  | 0.102      | 0.102      | 0.102      |   0.0 | 18.57
Other   |            | 0.02072    |            |       |  3.77

Nlocal:             20 ave          20 max          20 min
Histogram: 1 0 0 0 0 0 0 0 0 0
Nghost:              0 ave           0 max           0 min
Histogram: 1 0 0 0 0 0 0 0 0 0
Neighs:            113 ave         113 max         113 min
Histogram: 1 0 0 0 0 0 0 0 0 0

Total # of neighbors = 113
Ave neighs/atom = 5.65
Ave special neighs/atom = 5.4
Neighbor list builds = 8678
Dangerous builds = 0
Total wall time: 0:00:00
